32
 energy: -51.167326160140 gnorm: 0.000225799837 xtb: 6.6.1 (8d0f1dd)
Br           0.55279915312186       -2.49158214310299        1.22416745975169
C            1.41545299579347       -0.97486657139944        0.47220260932040
C            0.58941348219547       -0.00512896678313       -0.06360707901688
O           -0.73990922955863       -0.24541458350687        0.00793512614494
C           -1.64595436381025        0.69927885568900       -0.51040040729129
C           -3.06308550016942        0.22034888585299       -0.31447537302214
C           -3.34894933987313       -0.99370296824281        0.29053397246670
C           -4.66479979947735       -1.39544936457540        0.45058010126017
C           -5.69986942835490       -0.59090476811640        0.00929858767270
C           -5.41725299734521        0.62299994570237       -0.59578049152911
C           -4.10532903378822        1.02676946480017       -0.75693691921951
C            1.17559130948149        1.14051055340964       -0.63460210309248
C            2.53499320882268        1.28286642230850       -0.65466207726995
C            3.38693460105481        0.30269094860204       -0.11216602938179
C            4.79004712146541        0.44221996963510       -0.12877060906238
C            5.59756293259994       -0.52200532932432        0.40435793523060
C            5.03471993847418       -1.67183466476314        0.97935590390253
C            3.67927288619666       -1.84081642721355        1.01271714753155
C            2.81811099188285       -0.86430010048195        0.47088712984193
H           -1.51808216646339        1.66694570464327       -0.00027287499707
H           -1.46186849176974        0.85141283216124       -1.58554406177403
H           -2.54381527054618       -1.62229192782790        0.63553423749825
H           -4.87836619934587       -2.34269685713930        0.92287657451027
H           -6.72513953473763       -0.90615593848889        0.13483361335897
H           -6.22045015926744        1.25631474902182       -0.94284611239252
H           -3.88447379475159        1.97419304431598       -1.22897268526313
H            0.54977217783644        1.90961488509925       -1.05855317920924
H            2.97433604832896        2.16568317286669       -1.09535901281296
H            5.21196011710519        1.33171891886608       -0.57403045928563
H            6.67099333939826       -0.40656272140008        0.38720070201163
H            5.68277763003717       -2.42717960857592        1.39798463104330
H            3.25260637546423       -2.72783441203198        1.45651474307444
