      -----------------------------------------------------------      
     |                   =====================                   |     
     |                           x T B                           |     
     |                   =====================                   |     
     |                         S. Grimme                         |     
     |          Mulliken Center for Theoretical Chemistry        |     
     |                    University of Bonn                     |     
      -----------------------------------------------------------      

   * xtb version 6.6.1 (8d0f1dd) compiled by 'stahn@M-Bot' on 2023-08-01

   xtb is free software: you can redistribute it and/or modify it under
   the terms of the GNU Lesser General Public License as published by
   the Free Software Foundation, either version 3 of the License, or
   (at your option) any later version.
   
   xtb is distributed in the hope that it will be useful,
   but WITHOUT ANY WARRANTY; without even the implied warranty of
   MERCHANTABILITY or FITNESS FOR A PARTICULAR PURPOSE.  See the
   GNU Lesser General Public License for more details.
   
   Cite this work as:
   * C. Bannwarth, E. Caldeweyher, S. Ehlert, A. Hansen, P. Pracht,
     J. Seibert, S. Spicher, S. Grimme, WIREs Comput. Mol. Sci., 2020, 11,
     e01493. DOI: 10.1002/wcms.1493
   
   for GFN2-xTB:
   * C. Bannwarth, S. Ehlert and S. Grimme., J. Chem. Theory Comput., 2019,
     15, 1652-1671. DOI: 10.1021/acs.jctc.8b01176
   for GFN1-xTB:
   * S. Grimme, C. Bannwarth, P. Shushkov, J. Chem. Theory Comput., 2017,
     13, 1989-2009. DOI: 10.1021/acs.jctc.7b00118
   for GFN0-xTB:
   * P. Pracht, E. Caldeweyher, S. Ehlert, S. Grimme, ChemRxiv, 2019, preprint.
     DOI: 10.26434/chemrxiv.8326202.v1
   for GFN-FF:
   * S. Spicher and S. Grimme, Angew. Chem. Int. Ed., 2020, 59, 15665-15673.
     DOI: 10.1002/anie.202004239
   
   for ALPB and GBSA implicit solvation:
   * S. Ehlert, M. Stahn, S. Spicher, S. Grimme, J. Chem. Theory Comput.,
     2021, 17, 4250-4261. DOI: 10.1021/acs.jctc.1c00471
   
   for DFT-D4:
   * E. Caldeweyher, C. Bannwarth and S. Grimme, J. Chem. Phys., 2017,
     147, 034112. DOI: 10.1063/1.4993215
   * E. Caldeweyher, S. Ehlert, A. Hansen, H. Neugebauer, S. Spicher,
     C. Bannwarth and S. Grimme, J. Chem. Phys., 2019, 150, 154122.
     DOI: 10.1063/1.5090222
   * E. Caldeweyher, J.-M. Mewes, S. Ehlert and S. Grimme, Phys. Chem. Chem. Phys.
     2020, 22, 8499-8512. DOI: 10.1039/D0CP00502A
   
   for sTDA-xTB:
   * S. Grimme and C. Bannwarth, J. Chem. Phys., 2016, 145, 054103.
     DOI: 10.1063/1.4959605
   
   in the mass-spec context:
   * V. Asgeirsson, C. Bauer and S. Grimme, Chem. Sci., 2017, 8, 4879.
     DOI: 10.1039/c7sc00601b
   * J. Koopman and S. Grimme, ACS Omega 2019, 4, 12, 15120-15133.
     DOI: 10.1021/acsomega.9b02011
   
   for metadynamics refer to:
   * S. Grimme, J. Chem. Theory Comput., 2019, 155, 2847-2862
     DOI: 10.1021/acs.jctc.9b00143
   
   for SPH calculations refer to:
   * S. Spicher and S. Grimme, J. Chem. Theory Comput., 2021, 17, 1701-1714
     DOI: 10.1021/acs.jctc.0c01306
   
   with help from (in alphabetical order)
   P. Atkinson, C. Bannwarth, F. Bohle, G. Brandenburg, E. Caldeweyher
   M. Checinski, S. Dohm, S. Ehlert, S. Ehrlich, I. Gerasimov, C. Hölzer
   A. Katbashev, J. Koopman, C. Lavigne, S. Lehtola, F. März, M. Müller,
   F. Musil, H. Neugebauer, J. Pisarek, C. Plett, P. Pracht, F. Pultar,
   J. Seibert, P. Shushkov, S. Spicher, M. Stahn, M. Steiner, T. Strunk,
   J. Stückrath, T. Rose, and J. Unsleber
   
 * started run on 2024/03/27 at 14:22:23.535     

           -------------------------------------------------
          |                Calculation Setup                |
           -------------------------------------------------

          program call               : /home/echo/Downloads/xtb-661/bin/xtb lig_0.xyz --opt --gfn 2 --charge 0
          coordinate file            : lig_0.xyz
          omp threads                :                    12

   ID    Z sym.   atoms
    1    6 C      1-3, 5-7, 9-20, 24-27
    2    7 N      4
    3   15 P      8
    4   28 Ni     21
    5   16 S      22
    6    8 O      23
    7    1 H      28-57

           -------------------------------------------------
          |                 G F N 2 - x T B                 |
           -------------------------------------------------

        Reference                      10.1021/acs.jctc.8b01176
      * Hamiltonian:
        H0-scaling (s, p, d)           1.850000    2.230000    2.230000
        zeta-weighting                 0.500000
      * Dispersion:
        s8                             2.700000
        a1                             0.520000
        a2                             5.000000
        s9                             5.000000
      * Repulsion:
        kExp                           1.500000    1.000000
        rExp                           1.000000
      * Coulomb:
        alpha                          2.000000
        third order                    shell-resolved
        anisotropic                    true
        a3                             3.000000
        a5                             4.000000
        cn-shift                       1.200000
        cn-exp                         4.000000
        max-rad                        5.000000


          ...................................................
          :                      SETUP                      :
          :.................................................:
          :  # basis functions                 156          :
          :  # atomic orbitals                 153          :
          :  # shells                           87          :
          :  # electrons                       150          :
          :  max. iterations                   250          :
          :  Hamiltonian                  GFN2-xTB          :
          :  restarted?                      false          :
          :  GBSA solvation                  false          :
          :  PC potential                    false          :
          :  electronic temp.          300.0000000     K    :
          :  accuracy                    1.0000000          :
          :  -> integral cutoff          0.2500000E+02      :
          :  -> integral neglect         0.1000000E-07      :
          :  -> SCF convergence          0.1000000E-05 Eh   :
          :  -> wf. convergence          0.1000000E-03 e    :
          :  Broyden damping             0.4000000          :
          ...................................................

 iter      E             dE          RMSdq      gap      omega  full diag
   1    -80.7397036 -0.807397E+02  0.586E+00    2.60       0.0  T
   2    -80.9542873 -0.214584E+00  0.354E+00    2.17       1.0  T
   3    -80.9566525 -0.236522E-02  0.165E+00    1.30       1.0  T
   4    -80.9675487 -0.108962E-01  0.862E-01    1.38       1.0  T
   5    -80.9737718 -0.622313E-02  0.506E-01    1.35       1.0  T
   6    -80.9766063 -0.283446E-02  0.323E-01    1.39       1.0  T
   7    -80.9773921 -0.785785E-03  0.175E-01    1.43       1.0  T
   8    -80.9774878 -0.956919E-04  0.991E-02    1.42       1.0  T
   9    -80.9776322 -0.144395E-03  0.561E-02    1.41       1.0  T
  10    -80.9776637 -0.315001E-04  0.395E-02    1.41       1.0  T
  11    -80.9776780 -0.143550E-04  0.220E-02    1.41       1.0  T
  12    -80.9776817 -0.367155E-05  0.112E-02    1.41       1.2  T
  13    -80.9776834 -0.168369E-05  0.605E-03    1.41       2.2  T
  14    -80.9776838 -0.429651E-06  0.276E-03    1.41       4.8  T
  15    -80.9776839 -0.722783E-07  0.138E-03    1.41       9.6  T
  16    -80.9776839 -0.208179E-07  0.821E-04    1.41      16.1  T
  17    -80.9776839 -0.623949E-08  0.505E-04    1.41      26.2  T

   *** convergence criteria satisfied after 17 iterations ***

         #    Occupation            Energy/Eh            Energy/eV
      -------------------------------------------------------------
         1        2.0000           -0.7212961             -19.6275
       ...           ...                  ...                  ...
        69        2.0000           -0.3672498              -9.9934
        70        2.0000           -0.3533181              -9.6143
        71        2.0000           -0.3519933              -9.5782
        72        2.0000           -0.3479565              -9.4684
        73        2.0000           -0.3437298              -9.3534
        74        2.0000           -0.3371802              -9.1751
        75        2.0000           -0.2871662              -7.8142 (HOMO)
        76                         -0.2352468              -6.4014 (LUMO)
        77                         -0.2235555              -6.0833
        78                         -0.2150706              -5.8524
        79                         -0.2131492              -5.8001
        80                         -0.2107191              -5.7340
       ...                                ...                  ...
       153                          4.1492681             112.9073
      -------------------------------------------------------------
                  HL-Gap            0.0519194 Eh            1.4128 eV
             Fermi-level           -0.2612065 Eh           -7.1078 eV

 SCC (total)                   0 d,  0 h,  0 min,  0.117 sec
 SCC setup                      ...        0 min,  0.003 sec (  2.592%)
 Dispersion                     ...        0 min,  0.001 sec (  0.737%)
 classical contributions        ...        0 min,  0.000 sec (  0.062%)
 integral evaluation            ...        0 min,  0.020 sec ( 17.582%)
 iterations                     ...        0 min,  0.078 sec ( 67.212%)
 molecular gradient             ...        0 min,  0.011 sec (  9.106%)
 printout                       ...        0 min,  0.003 sec (  2.667%)

         :::::::::::::::::::::::::::::::::::::::::::::::::::::
         ::                     SUMMARY                     ::
         :::::::::::::::::::::::::::::::::::::::::::::::::::::
         :: total energy             -79.761203527516 Eh    ::
         :: gradient norm              0.318434557564 Eh/a0 ::
         :: HOMO-LUMO gap              1.412798190480 eV    ::
         ::.................................................::
         :: SCC energy               -80.977683911520 Eh    ::
         :: -> isotropic ES            0.092490209664 Eh    ::
         :: -> anisotropic ES          0.000222121471 Eh    ::
         :: -> anisotropic XC          0.033037484620 Eh    ::
         :: -> dispersion             -0.079027674682 Eh    ::
         :: repulsion energy           1.214847473614 Eh    ::
         :: add. restraining           0.000000000000 Eh    ::
         :: total charge               0.000000000000 e     ::
         :::::::::::::::::::::::::::::::::::::::::::::::::::::

      ----------------------------------------------------------- 
     |                   =====================                   |
     |                        A N C O P T                        |
     |                   =====================                   |
     |               Approximate Normal Coordinate               |
     |                Rational Function Optimizer                |
      ----------------------------------------------------------- 

          ...................................................
          :                      SETUP                      :
          :.................................................:
          :   optimization level            normal          :
          :   max. optcycles                   200          :
          :   ANC micro-cycles                  20          :
          :   degrees of freedom               165          :
          :.................................................:
          :   RF solver                   davidson          :
          :   write xtbopt.log                true          :
          :   linear?                        false          :
          :   energy convergence         0.5000000E-05 Eh   :
          :   grad. convergence          0.1000000E-02 Eh/α :
          :   maxmium RF displ.          1.0000000          :
          :   Hlow (freq-cutoff)         0.1000000E-01      :
          :   Hmax (freq-cutoff)         5.0000000          :
          :   S6 in model hess.         20.0000000          :
          ...................................................

generating ANC from model Hessian ...
Using Lindh-Hessian (1995)
 Shifting diagonal of input Hessian by   9.783492162680511E-003
 Lowest  eigenvalues of input Hessian
    0.000000    0.000000    0.000000    0.000000    0.000000    0.000000
    0.010000    0.010069    0.010300    0.010494    0.010596    0.010661
    0.010847    0.011193    0.011468    0.012043    0.012991    0.013391
 Highest eigenvalues
    1.960711    2.052525    2.055308    2.059197    2.088321    2.115893
 

........................................................................
.............................. CYCLE    1 ..............................
........................................................................

 iter      E             dE          RMSdq      gap      omega  full diag
   1    -80.9776839 -0.809777E+02  0.310E-04    1.41       0.0  T
   2    -80.9776839 -0.319233E-09  0.233E-04    1.41      56.9  T
   3    -80.9776839 -0.873825E-10  0.188E-04    1.41      70.6  T
     SCC iter.                  ...        0 min,  0.013 sec
     gradient                   ...        0 min,  0.009 sec
 * total energy  :   -79.7612035 Eh     change       -0.1479009E-08 Eh
   gradient norm :     0.3184369 Eh/α   predicted     0.0000000E+00 (-100.00%)
   displ. norm   :     0.4948699 α      lambda       -0.1089453E+00
   maximum displ.:     0.1392907 α      in ANC's #31, #116, #92, ...

........................................................................
.............................. CYCLE    2 ..............................
........................................................................

 iter      E             dE          RMSdq      gap      omega  full diag
   1    -81.0115796 -0.810116E+02  0.501E-01    1.57       0.0  T
   2    -81.0128171 -0.123750E-02  0.304E-01    1.46       1.0  T
   3    -81.0128813 -0.642078E-04  0.164E-01    1.46       1.0  T
   4    -81.0129388 -0.574989E-04  0.909E-02    1.44       1.0  T
   5    -81.0129603 -0.215287E-04  0.585E-02    1.44       1.0  T
   6    -81.0130169 -0.565620E-04  0.290E-02    1.45       1.0  T
   7    -81.0130190 -0.212467E-05  0.168E-02    1.44       1.0  T
   8    -81.0130211 -0.210776E-05  0.874E-03    1.44       1.5  T
   9    -81.0130223 -0.115050E-05  0.518E-03    1.44       2.6  T
  10    -81.0130224 -0.139049E-06  0.332E-03    1.44       4.0  T
  11    -81.0130224 -0.467374E-07  0.198E-03    1.44       6.7  T
  12    -81.0130225 -0.255624E-07  0.124E-03    1.44      10.6  T
  13    -81.0130225 -0.224412E-07  0.603E-04    1.44      22.0  T
  14    -81.0130225 -0.304239E-08  0.325E-04    1.44      40.8  T
     SCC iter.                  ...        0 min,  0.048 sec
     gradient                   ...        0 min,  0.009 sec
 * total energy  :   -79.8385251 Eh     change       -0.7732161E-01 Eh
   gradient norm :     0.1448959 Eh/α   predicted    -0.6787719E-01 ( -12.21%)
   displ. norm   :     0.5359504 α      lambda       -0.4511712E-01
   maximum displ.:     0.2203025 α      in ANC's #31, #34, #32, ...

........................................................................
.............................. CYCLE    3 ..............................
........................................................................

 iter      E             dE          RMSdq      gap      omega  full diag
   1    -81.0321601 -0.810322E+02  0.375E-01    1.55       0.0  T
   2    -81.0332371 -0.107700E-02  0.250E-01    1.50       1.0  T
   3    -81.0333488 -0.111651E-03  0.136E-01    1.51       1.0  T
   4    -81.0333473  0.149853E-05  0.662E-02    1.50       1.0  T
   5    -81.0334344 -0.871012E-04  0.377E-02    1.50       1.0  T
   6    -81.0334516 -0.171865E-04  0.197E-02    1.50       1.0  T
   7    -81.0334527 -0.109589E-05  0.134E-02    1.50       1.0  T
   8    -81.0334541 -0.141414E-05  0.833E-03    1.50       1.6  T
   9    -81.0334549 -0.788689E-06  0.538E-03    1.50       2.5  T
  10    -81.0334550 -0.145429E-06  0.337E-03    1.50       3.9  T
  11    -81.0334551 -0.841687E-07  0.174E-03    1.50       7.6  T
  12    -81.0334551 -0.395044E-07  0.797E-04    1.50      16.6  T
  13    -81.0334551 -0.916071E-08  0.373E-04    1.50      35.5  T
     SCC iter.                  ...        0 min,  0.045 sec
     gradient                   ...        0 min,  0.008 sec
 * total energy  :   -79.8708964 Eh     change       -0.3237130E-01 Eh
   gradient norm :     0.0575949 Eh/α   predicted    -0.2903837E-01 ( -10.30%)
   displ. norm   :     0.6090403 α      lambda       -0.1993695E-01
   maximum displ.:     0.2837832 α      in ANC's #31, #15, #34, ...

........................................................................
.............................. CYCLE    4 ..............................
........................................................................

 iter      E             dE          RMSdq      gap      omega  full diag
   1    -81.0383888 -0.810384E+02  0.335E-01    1.62       0.0  T
   2    -81.0389111 -0.522296E-03  0.213E-01    1.57       1.0  T
   3    -81.0388529  0.582257E-04  0.120E-01    1.56       1.0  T
   4    -81.0389740 -0.121183E-03  0.586E-02    1.56       1.0  T
   5    -81.0390421 -0.680808E-04  0.341E-02    1.55       1.0  T
   6    -81.0390499 -0.781060E-05  0.170E-02    1.56       1.0  T
   7    -81.0390504 -0.469696E-06  0.933E-03    1.56       1.4  T
   8    -81.0390513 -0.841037E-06  0.567E-03    1.56       2.3  T
   9    -81.0390517 -0.429823E-06  0.371E-03    1.56       3.6  T
  10    -81.0390518 -0.708685E-07  0.250E-03    1.56       5.3  T
  11    -81.0390518 -0.332285E-07  0.130E-03    1.56      10.2  T
  12    -81.0390518 -0.295395E-07  0.535E-04    1.56      24.8  T
  13    -81.0390518 -0.442418E-08  0.212E-04    1.56      62.4  T
     SCC iter.                  ...        0 min,  0.057 sec
     gradient                   ...        0 min,  0.009 sec
 * total energy  :   -79.8861378 Eh     change       -0.1524134E-01 Eh
   gradient norm :     0.0315245 Eh/α   predicted    -0.1366609E-01 ( -10.34%)
   displ. norm   :     0.6916079 α      lambda       -0.1288510E-01
   maximum displ.:     0.2947521 α      in ANC's #31, #15, #10, ...

........................................................................
.............................. CYCLE    5 ..............................
........................................................................

 iter      E             dE          RMSdq      gap      omega  full diag
   1    -81.0412521 -0.810413E+02  0.400E-01    1.69       0.0  T
   2    -81.0416234 -0.371324E-03  0.237E-01    1.63       1.0  T
   3    -81.0413496  0.273814E-03  0.139E-01    1.60       1.0  T
   4    -81.0417083 -0.358765E-03  0.624E-02    1.60       1.0  T
   5    -81.0417644 -0.560375E-04  0.337E-02    1.60       1.0  T
   6    -81.0417664 -0.206415E-05  0.170E-02    1.60       1.0  T
   7    -81.0417682 -0.178988E-05  0.752E-03    1.60       1.8  T
   8    -81.0417686 -0.384248E-06  0.399E-03    1.60       3.3  T
   9    -81.0417688 -0.157577E-06  0.248E-03    1.60       5.3  T
  10    -81.0417688 -0.544273E-07  0.163E-03    1.60       8.1  T
  11    -81.0417688 -0.136550E-07  0.960E-04    1.60      13.8  T
  12    -81.0417689 -0.786012E-08  0.569E-04    1.60      23.3  T
     SCC iter.                  ...        0 min,  0.042 sec
     gradient                   ...        0 min,  0.009 sec
 * total energy  :   -79.8968095 Eh     change       -0.1067176E-01 Eh
   gradient norm :     0.0277055 Eh/α   predicted    -0.9524172E-02 ( -10.75%)
   displ. norm   :     0.7570146 α      lambda       -0.1066364E-01
   maximum displ.:     0.2720193 α      in ANC's #31, #15, #10, ...

........................................................................
.............................. CYCLE    6 ..............................
........................................................................

 iter      E             dE          RMSdq      gap      omega  full diag
   1    -81.0445309 -0.810445E+02  0.430E-01    1.74       0.0  T
   2    -81.0449660 -0.435101E-03  0.242E-01    1.67       1.0  T
   3    -81.0447594  0.206589E-03  0.141E-01    1.62       1.0  T
   4    -81.0450755 -0.316090E-03  0.606E-02    1.63       1.0  T
   5    -81.0451393 -0.638055E-04  0.308E-02    1.63       1.0  T
   6    -81.0451412 -0.186486E-05  0.169E-02    1.63       1.0  T
   7    -81.0451441 -0.298674E-05  0.747E-03    1.63       1.8  T
   8    -81.0451444 -0.255328E-06  0.377E-03    1.63       3.5  T
   9    -81.0451445 -0.568018E-07  0.216E-03    1.63       6.1  T
  10    -81.0451445 -0.714137E-07  0.106E-03    1.63      12.5  T
  11    -81.0451445 -0.557384E-08  0.489E-04    1.63      27.1  T
  12    -81.0451445 -0.316696E-08  0.230E-04    1.63      57.7  T
     SCC iter.                  ...        0 min,  0.052 sec
     gradient                   ...        0 min,  0.011 sec
 * total energy  :   -79.9054907 Eh     change       -0.8681179E-02 Eh
   gradient norm :     0.0267508 Eh/α   predicted    -0.8387352E-02 (  -3.38%)
   displ. norm   :     0.6973679 α      lambda       -0.7747144E-02
   maximum displ.:     0.2524556 α      in ANC's #10, #15, #4, ...

........................................................................
.............................. CYCLE    7 ..............................
........................................................................

 iter      E             dE          RMSdq      gap      omega  full diag
   1    -81.0498845 -0.810499E+02  0.343E-01    1.73       0.0  T
   2    -81.0501508 -0.266251E-03  0.192E-01    1.67       1.0  T
   3    -81.0500022  0.148542E-03  0.103E-01    1.63       1.0  T
   4    -81.0502379 -0.235660E-03  0.408E-02    1.63       1.0  T
   5    -81.0502661 -0.281565E-04  0.209E-02    1.63       1.0  T
   6    -81.0502677 -0.167427E-05  0.121E-02    1.64       1.1  T
   7    -81.0502692 -0.144393E-05  0.643E-03    1.64       2.1  T
   8    -81.0502694 -0.181105E-06  0.386E-03    1.64       3.4  T
   9    -81.0502695 -0.955504E-07  0.224E-03    1.64       5.9  T
  10    -81.0502695 -0.557032E-07  0.124E-03    1.64      10.7  T
  11    -81.0502695 -0.947763E-08  0.678E-04    1.64      19.5  T
  12    -81.0502695 -0.621627E-08  0.429E-04    1.64      30.9  T
     SCC iter.                  ...        0 min,  0.294 sec
     gradient                   ...        0 min,  0.009 sec
 * total energy  :   -79.9116884 Eh     change       -0.6197644E-02 Eh
   gradient norm :     0.0338260 Eh/α   predicted    -0.5757381E-02 (  -7.10%)
   displ. norm   :     0.6352277 α      lambda       -0.6570116E-02
   maximum displ.:     0.2662971 α      in ANC's #10, #4, #15, ...

........................................................................
.............................. CYCLE    8 ..............................
........................................................................

 iter      E             dE          RMSdq      gap      omega  full diag
   1    -81.0575663 -0.810576E+02  0.286E-01    1.69       0.0  T
   2    -81.0576865 -0.120218E-03  0.179E-01    1.66       1.0  T
   3    -81.0574728  0.213647E-03  0.911E-02    1.63       1.0  T
   4    -81.0577489 -0.276019E-03  0.349E-02    1.64       1.0  T
   5    -81.0577507 -0.180188E-05  0.209E-02    1.64       1.0  T
   6    -81.0577532 -0.249141E-05  0.124E-02    1.64       1.1  T
   7    -81.0577549 -0.169860E-05  0.708E-03    1.64       1.9  T
   8    -81.0577551 -0.279040E-06  0.434E-03    1.64       3.1  T
   9    -81.0577553 -0.163739E-06  0.259E-03    1.64       5.1  T
  10    -81.0577553 -0.318574E-07  0.155E-03    1.64       8.5  T
  11    -81.0577553 -0.133359E-07  0.849E-04    1.64      15.6  T
  12    -81.0577554 -0.105967E-07  0.490E-04    1.64      27.0  T
     SCC iter.                  ...        0 min,  0.049 sec
     gradient                   ...        0 min,  0.010 sec
 * total energy  :   -79.9172044 Eh     change       -0.5516013E-02 Eh
   gradient norm :     0.0339141 Eh/α   predicted    -0.4610631E-02 ( -16.41%)
   displ. norm   :     0.6527850 α      lambda       -0.7069872E-02
   maximum displ.:     0.2708994 α      in ANC's #10, #4, #15, ...

........................................................................
.............................. CYCLE    9 ..............................
........................................................................

 iter      E             dE          RMSdq      gap      omega  full diag
   1    -81.0659902 -0.810660E+02  0.318E-01    1.68       0.0  T
   2    -81.0661047 -0.114469E-03  0.214E-01    1.68       1.0  T
   3    -81.0658002  0.304468E-03  0.114E-01    1.66       1.0  T
   4    -81.0661812 -0.381018E-03  0.449E-02    1.66       1.0  T
   5    -81.0661764  0.486026E-05  0.284E-02    1.67       1.0  T
   6    -81.0661846 -0.823551E-05  0.165E-02    1.67       1.0  T
   7    -81.0661871 -0.250612E-05  0.988E-03    1.67       1.3  T
   8    -81.0661877 -0.637847E-06  0.566E-03    1.67       2.3  T
   9    -81.0661880 -0.218185E-06  0.346E-03    1.67       3.8  T
  10    -81.0661880 -0.523782E-07  0.189E-03    1.67       7.0  T
  11    -81.0661880 -0.149738E-07  0.843E-04    1.67      15.7  T
  12    -81.0661880 -0.109241E-07  0.517E-04    1.67      25.6  T
     SCC iter.                  ...        0 min,  0.054 sec
     gradient                   ...        0 min,  0.010 sec
 * total energy  :   -79.9231203 Eh     change       -0.5915931E-02 Eh
   gradient norm :     0.0304144 Eh/α   predicted    -0.5041273E-02 ( -14.78%)
   displ. norm   :     0.6842490 α      lambda       -0.6720383E-02
   maximum displ.:     0.2745885 α      in ANC's #10, #4, #32, ...

........................................................................
.............................. CYCLE   10 ..............................
........................................................................

 iter      E             dE          RMSdq      gap      omega  full diag
   1    -81.0700318 -0.810700E+02  0.326E-01    1.72       0.0  T
   2    -81.0701527 -0.120819E-03  0.215E-01    1.73       1.0  T
   3    -81.0699024  0.250239E-03  0.115E-01    1.72       1.0  T
   4    -81.0702316 -0.329177E-03  0.504E-02    1.73       1.0  T
   5    -81.0702342 -0.260168E-05  0.305E-02    1.73       1.0  T
   6    -81.0702434 -0.921354E-05  0.173E-02    1.73       1.0  T
   7    -81.0702451 -0.166133E-05  0.109E-02    1.73       1.2  T
   8    -81.0702462 -0.113013E-05  0.551E-03    1.73       2.4  T
   9    -81.0702463 -0.105643E-06  0.361E-03    1.73       3.7  T
  10    -81.0702464 -0.414441E-07  0.176E-03    1.73       7.5  T
  11    -81.0702464 -0.421634E-07  0.775E-04    1.73      17.1  T
  12    -81.0702464 -0.788613E-08  0.451E-04    1.73      29.4  T
     SCC iter.                  ...        0 min,  0.109 sec
     gradient                   ...        0 min,  0.010 sec
 * total energy  :   -79.9286101 Eh     change       -0.5489775E-02 Eh
   gradient norm :     0.0265762 Eh/α   predicted    -0.4933424E-02 ( -10.13%)
   displ. norm   :     0.6808699 α      lambda       -0.5455696E-02
   maximum displ.:     0.2519784 α      in ANC's #10, #4, #11, ...

........................................................................
.............................. CYCLE   11 ..............................
........................................................................

 iter      E             dE          RMSdq      gap      omega  full diag
   1    -81.0732274 -0.810732E+02  0.287E-01    1.78       0.0  T
   2    -81.0733143 -0.868796E-04  0.184E-01    1.80       1.0  T
   3    -81.0731338  0.180513E-03  0.100E-01    1.80       1.0  T
   4    -81.0733811 -0.247287E-03  0.492E-02    1.80       1.0  T
   5    -81.0733826 -0.148990E-05  0.277E-02    1.80       1.0  T
   6    -81.0733907 -0.814350E-05  0.174E-02    1.80       1.0  T
   7    -81.0733928 -0.207617E-05  0.957E-03    1.80       1.4  T
   8    -81.0733935 -0.724069E-06  0.538E-03    1.80       2.5  T
   9    -81.0733937 -0.159632E-06  0.343E-03    1.80       3.9  T
  10    -81.0733937 -0.258248E-07  0.150E-03    1.80       8.8  T
  11    -81.0733937 -0.345045E-07  0.646E-04    1.80      20.5  T
  12    -81.0733937 -0.737593E-08  0.387E-04    1.80      34.3  T
     SCC iter.                  ...        0 min,  0.045 sec
     gradient                   ...        0 min,  0.010 sec
 * total energy  :   -79.9327527 Eh     change       -0.4142660E-02 Eh
   gradient norm :     0.0208780 Eh/α   predicted    -0.3992436E-02 (  -3.63%)
   displ. norm   :     0.6823402 α      lambda       -0.3969476E-02
   maximum displ.:     0.2770444 α      in ANC's #10, #11, #4, ...

........................................................................
.............................. CYCLE   12 ..............................
........................................................................

 iter      E             dE          RMSdq      gap      omega  full diag
   1    -81.0707013 -0.810707E+02  0.234E-01    1.86       0.0  T
   2    -81.0707577 -0.563749E-04  0.142E-01    1.86       1.0  T
   3    -81.0706965  0.611772E-04  0.672E-02    1.85       1.0  T
   4    -81.0707890 -0.924570E-04  0.361E-02    1.85       1.0  T
   5    -81.0707966 -0.760334E-05  0.213E-02    1.85       1.0  T
   6    -81.0707994 -0.285376E-05  0.128E-02    1.85       1.0  T
   7    -81.0708012 -0.179766E-05  0.648E-03    1.85       2.0  T
   8    -81.0708016 -0.328209E-06  0.371E-03    1.85       3.6  T
   9    -81.0708016 -0.660917E-07  0.234E-03    1.85       5.7  T
  10    -81.0708016 -0.140958E-07  0.107E-03    1.85      12.4  T
  11    -81.0708017 -0.156717E-07  0.416E-04    1.85      31.8  T
  12    -81.0708017 -0.304557E-08  0.215E-04    1.85      61.7  T
     SCC iter.                  ...        0 min,  0.046 sec
     gradient                   ...        0 min,  0.010 sec
 * total energy  :   -79.9355520 Eh     change       -0.2799242E-02 Eh
   gradient norm :     0.0222686 Eh/α   predicted    -0.2908819E-02 (   3.91%)
   displ. norm   :     0.5736079 α      lambda       -0.2832516E-02
   maximum displ.:     0.2439094 α      in ANC's #11, #10, #4, ...

........................................................................
.............................. CYCLE   13 ..............................
........................................................................

 iter      E             dE          RMSdq      gap      omega  full diag
   1    -81.0798558 -0.810799E+02  0.189E-01    1.86       0.0  T
   2    -81.0798997 -0.439026E-04  0.118E-01    1.88       1.0  T
   3    -81.0798651  0.345446E-04  0.497E-02    1.89       1.0  T
   4    -81.0799148 -0.496748E-04  0.308E-02    1.89       1.0  T
   5    -81.0799225 -0.772304E-05  0.188E-02    1.88       1.0  T
   6    -81.0799247 -0.216574E-05  0.116E-02    1.89       1.1  T
   7    -81.0799253 -0.600347E-06  0.799E-03    1.89       1.7  T
   8    -81.0799258 -0.507322E-06  0.403E-03    1.89       3.3  T
   9    -81.0799258 -0.428649E-07  0.255E-03    1.89       5.2  T
  10    -81.0799259 -0.163825E-07  0.111E-03    1.89      11.9  T
  11    -81.0799259 -0.176939E-07  0.460E-04    1.89      28.8  T
  12    -81.0799259 -0.185784E-08  0.289E-04    1.89      45.9  T
     SCC iter.                  ...        0 min,  0.042 sec
     gradient                   ...        0 min,  0.008 sec
 * total energy  :   -79.9374605 Eh     change       -0.1908500E-02 Eh
   gradient norm :     0.0192697 Eh/α   predicted    -0.1882249E-02 (  -1.38%)
   displ. norm   :     0.6250234 α      lambda       -0.2819822E-02
   maximum displ.:     0.2326936 α      in ANC's #7, #10, #4, ...

........................................................................
.............................. CYCLE   14 ..............................
........................................................................

 iter      E             dE          RMSdq      gap      omega  full diag
   1    -81.0739249 -0.810739E+02  0.196E-01    1.92       0.0  T
   2    -81.0740189 -0.940153E-04  0.116E-01    1.91       1.0  T
   3    -81.0740064  0.125192E-04  0.588E-02    1.90       1.0  T
   4    -81.0740348 -0.284700E-04  0.290E-02    1.90       1.0  T
   5    -81.0740455 -0.107022E-04  0.182E-02    1.90       1.0  T
   6    -81.0740470 -0.145433E-05  0.102E-02    1.90       1.3  T
   7    -81.0740482 -0.118889E-05  0.436E-03    1.90       3.0  T
   8    -81.0740483 -0.767808E-07  0.181E-03    1.90       7.3  T
   9    -81.0740483 -0.463605E-07  0.113E-03    1.90      11.7  T
  10    -81.0740483 -0.203440E-07  0.671E-04    1.90      19.7  T
  11    -81.0740483 -0.352678E-08  0.421E-04    1.90      31.4  T
     SCC iter.                  ...        0 min,  0.041 sec
     gradient                   ...        0 min,  0.008 sec
 * total energy  :   -79.9387040 Eh     change       -0.1243504E-02 Eh
   gradient norm :     0.0280362 Eh/α   predicted    -0.1960708E-02 (  57.68%)
   displ. norm   :     0.3540609 α      lambda       -0.2150965E-02
   maximum displ.:     0.1635202 α      in ANC's #7, #11, #10, ...

........................................................................
.............................. CYCLE   15 ..............................
........................................................................

 iter      E             dE          RMSdq      gap      omega  full diag
   1    -81.0832403 -0.810832E+02  0.995E-02    1.89       0.0  T
   2    -81.0832562 -0.159416E-04  0.591E-02    1.90       1.0  T
   3    -81.0832359  0.202494E-04  0.293E-02    1.90       1.0  T
   4    -81.0832646 -0.286203E-04  0.101E-02    1.90       1.3  T
   5    -81.0832661 -0.149391E-05  0.511E-03    1.90       2.6  T
   6    -81.0832664 -0.301224E-06  0.287E-03    1.90       4.6  T
   7    -81.0832664 -0.182857E-07  0.184E-03    1.90       7.2  T
   8    -81.0832664 -0.173513E-07  0.925E-04    1.90      14.3  T
   9    -81.0832664 -0.112898E-07  0.550E-04    1.90      24.1  T
     SCC iter.                  ...        0 min,  0.033 sec
     gradient                   ...        0 min,  0.010 sec
 * total energy  :   -79.9403071 Eh     change       -0.1603101E-02 Eh
   gradient norm :     0.0156104 Eh/α   predicted    -0.1210309E-02 ( -24.50%)
   displ. norm   :     0.5281103 α      lambda       -0.1871910E-02
   maximum displ.:     0.2681395 α      in ANC's #7, #10, #3, ...

........................................................................
.............................. CYCLE   16 ..............................
........................................................................

 iter      E             dE          RMSdq      gap      omega  full diag
   1    -81.0912145 -0.810912E+02  0.131E-01    1.86       0.0  T
   2    -81.0912689 -0.544149E-04  0.863E-02    1.88       1.0  T
   3    -81.0912472  0.217287E-04  0.475E-02    1.89       1.0  T
   4    -81.0912916 -0.443725E-04  0.264E-02    1.89       1.0  T
   5    -81.0912987 -0.713864E-05  0.146E-02    1.89       1.0  T
   6    -81.0912987  0.346330E-07  0.847E-03    1.89       1.6  T
   7    -81.0912994 -0.767617E-06  0.423E-03    1.89       3.1  T
   8    -81.0912996 -0.120243E-06  0.183E-03    1.89       7.3  T
   9    -81.0912996 -0.637420E-07  0.821E-04    1.89      16.1  T
  10    -81.0912996 -0.494146E-08  0.570E-04    1.89      23.2  T
     SCC iter.                  ...        0 min,  0.035 sec
     gradient                   ...        0 min,  0.008 sec
 * total energy  :   -79.9416462 Eh     change       -0.1339136E-02 Eh
   gradient norm :     0.0187075 Eh/α   predicted    -0.1196997E-02 ( -10.61%)
   displ. norm   :     0.6484233 α      lambda       -0.2233474E-02
   maximum displ.:     0.3685611 α      in ANC's #7, #10, #8, ...

........................................................................
.............................. CYCLE   17 ..............................
........................................................................

 iter      E             dE          RMSdq      gap      omega  full diag
   1    -81.0933412 -0.810933E+02  0.176E-01    1.88       0.0  T
   2    -81.0935003 -0.159136E-03  0.108E-01    1.88       1.0  T
   3    -81.0935255 -0.251596E-04  0.629E-02    1.88       1.0  T
   4    -81.0935402 -0.147410E-04  0.247E-02    1.87       1.0  T
   5    -81.0935538 -0.136174E-04  0.134E-02    1.88       1.0  T
   6    -81.0935541 -0.231750E-06  0.861E-03    1.88       1.5  T
   7    -81.0935548 -0.770425E-06  0.485E-03    1.88       2.7  T
   8    -81.0935549 -0.103554E-06  0.215E-03    1.88       6.1  T
   9    -81.0935550 -0.265006E-07  0.140E-03    1.88       9.5  T
  10    -81.0935550 -0.282751E-07  0.830E-04    1.88      15.9  T
  11    -81.0935550 -0.562427E-08  0.505E-04    1.88      26.2  T
     SCC iter.                  ...        0 min,  0.040 sec
     gradient                   ...        0 min,  0.009 sec
 * total energy  :   -79.9427051 Eh     change       -0.1058865E-02 Eh
   gradient norm :     0.0251129 Eh/α   predicted    -0.1586272E-02 (  49.81%)
   displ. norm   :     0.4894101 α      lambda       -0.2024718E-02
   maximum displ.:     0.2638387 α      in ANC's #7, #10, #8, ...

........................................................................
.............................. CYCLE   18 ..............................
........................................................................

 iter      E             dE          RMSdq      gap      omega  full diag
   1    -81.0884932 -0.810885E+02  0.143E-01    1.84       0.0  T
   2    -81.0885787 -0.854945E-04  0.970E-02    1.86       1.0  T
   3    -81.0885543  0.244017E-04  0.572E-02    1.87       1.0  T
   4    -81.0885985 -0.442036E-04  0.366E-02    1.87       1.0  T
   5    -81.0886077 -0.926667E-05  0.212E-02    1.87       1.0  T
   6    -81.0886074  0.288526E-06  0.102E-02    1.86       1.3  T
   7    -81.0886084 -0.933628E-06  0.487E-03    1.86       2.7  T
   8    -81.0886085 -0.177985E-06  0.179E-03    1.86       7.4  T
   9    -81.0886086 -0.547560E-07  0.973E-04    1.86      13.6  T
  10    -81.0886086 -0.122022E-07  0.575E-04    1.86      23.0  T
     SCC iter.                  ...        0 min,  0.036 sec
     gradient                   ...        0 min,  0.010 sec
 * total energy  :   -79.9441999 Eh     change       -0.1494781E-02 Eh
   gradient norm :     0.0175706 Eh/α   predicted    -0.1254845E-02 ( -16.05%)
   displ. norm   :     0.5314099 α      lambda       -0.2151841E-02
   maximum displ.:     0.3095523 α      in ANC's #7, #15, #8, ...

........................................................................
.............................. CYCLE   19 ..............................
........................................................................

 iter      E             dE          RMSdq      gap      omega  full diag
   1    -81.0950300 -0.810950E+02  0.171E-01    1.82       0.0  T
   2    -81.0951831 -0.153067E-03  0.119E-01    1.84       1.0  T
   3    -81.0951604  0.226500E-04  0.729E-02    1.84       1.0  T
   4    -81.0952204 -0.599929E-04  0.439E-02    1.84       1.0  T
   5    -81.0952314 -0.109841E-04  0.246E-02    1.84       1.0  T
   6    -81.0952322 -0.798326E-06  0.127E-02    1.84       1.0  T
   7    -81.0952332 -0.103219E-05  0.677E-03    1.84       2.0  T
   8    -81.0952334 -0.223779E-06  0.273E-03    1.84       4.9  T
   9    -81.0952335 -0.469104E-07  0.157E-03    1.84       8.4  T
  10    -81.0952335 -0.259822E-07  0.874E-04    1.84      15.2  T
  11    -81.0952335 -0.625072E-08  0.485E-04    1.84      27.3  T
     SCC iter.                  ...        0 min,  0.040 sec
     gradient                   ...        0 min,  0.009 sec
 * total energy  :   -79.9455245 Eh     change       -0.1324646E-02 Eh
   gradient norm :     0.0248426 Eh/α   predicted    -0.1379758E-02 (   4.16%)
   displ. norm   :     0.5819513 α      lambda       -0.1779527E-02
   maximum displ.:     0.3490635 α      in ANC's #7, #10, #8, ...

........................................................................
.............................. CYCLE   20 ..............................
........................................................................

 iter      E             dE          RMSdq      gap      omega  full diag
   1    -81.0887154 -0.810887E+02  0.166E-01    1.81       0.0  T
   2    -81.0888554 -0.140049E-03  0.108E-01    1.82       1.0  T
   3    -81.0888525  0.299847E-05  0.632E-02    1.82       1.0  T
   4    -81.0888950 -0.425509E-04  0.358E-02    1.82       1.0  T
   5    -81.0889038 -0.882807E-05  0.206E-02    1.82       1.0  T
   6    -81.0889041 -0.239063E-06  0.117E-02    1.82       1.1  T
   7    -81.0889051 -0.104345E-05  0.616E-03    1.82       2.1  T
   8    -81.0889053 -0.206038E-06  0.220E-03    1.82       6.0  T
   9    -81.0889053 -0.830001E-08  0.127E-03    1.82      10.4  T
  10    -81.0889053 -0.205674E-07  0.689E-04    1.82      19.2  T
  11    -81.0889054 -0.484795E-08  0.370E-04    1.82      35.8  T
     SCC iter.                  ...        0 min,  0.045 sec
     gradient                   ...        0 min,  0.010 sec
 * total energy  :   -79.9469316 Eh     change       -0.1407091E-02 Eh
   gradient norm :     0.0237813 Eh/α   predicted    -0.1191110E-02 ( -15.35%)
   displ. norm   :     0.5268592 α      lambda       -0.2304252E-02
   maximum displ.:     0.2977671 α      in ANC's #7, #8, #5, ...
 * RMSD in coord.:     1.0981936 α      energy gain  -0.1857281E+00 Eh

generating ANC from model Hessian ...
Using Lindh-Hessian (1995)
 Shifting diagonal of input Hessian by   9.790020710966664E-003
 Lowest  eigenvalues of input Hessian
    0.000000    0.000000    0.000000    0.000000    0.000000    0.000000
    0.010000    0.010034    0.010305    0.010454    0.010540    0.010735
    0.010822    0.011061    0.011163    0.011618    0.011925    0.013195
 Highest eigenvalues
    1.946540    1.981689    1.991752    1.997296    2.015106    2.592767
 

........................................................................
.............................. CYCLE   21 ..............................
........................................................................

 iter      E             dE          RMSdq      gap      omega  full diag
   1    -81.0953047 -0.810953E+02  0.164E-01    1.80       0.0  T
   2    -81.0954825 -0.177812E-03  0.108E-01    1.80       1.0  T
   3    -81.0955060 -0.234987E-04  0.585E-02    1.80       1.0  T
   4    -81.0955315 -0.254478E-04  0.321E-02    1.80       1.0  T
   5    -81.0955425 -0.110820E-04  0.177E-02    1.80       1.0  T
   6    -81.0955440 -0.143007E-05  0.109E-02    1.80       1.2  T
   7    -81.0955446 -0.664146E-06  0.701E-03    1.80       1.9  T
   8    -81.0955449 -0.299168E-06  0.368E-03    1.80       3.6  T
   9    -81.0955450 -0.809611E-07  0.219E-03    1.80       6.0  T
  10    -81.0955451 -0.497817E-07  0.114E-03    1.80      11.6  T
  11    -81.0955451 -0.120410E-08  0.639E-04    1.80      20.7  T
  12    -81.0955451 -0.204959E-08  0.319E-04    1.80      41.5  T
     SCC iter.                  ...        0 min,  0.049 sec
     gradient                   ...        0 min,  0.008 sec
 * total energy  :   -79.9484070 Eh     change       -0.1475353E-02 Eh
   gradient norm :     0.0167101 Eh/α   predicted     0.0000000E+00 (-100.00%)
   displ. norm   :     0.2007516 α      lambda       -0.1227305E-02
   maximum displ.:     0.0788660 α      in ANC's #8, #14, #22, ...

........................................................................
.............................. CYCLE   22 ..............................
........................................................................

 iter      E             dE          RMSdq      gap      omega  full diag
   1    -81.0968806 -0.810969E+02  0.598E-02    1.80       0.0  T
   2    -81.0968884 -0.775783E-05  0.364E-02    1.80       1.0  T
   3    -81.0968869  0.145563E-05  0.167E-02    1.80       1.0  T
   4    -81.0968900 -0.304051E-05  0.580E-03    1.80       2.3  T
   5    -81.0968902 -0.259657E-06  0.414E-03    1.80       3.2  T
   6    -81.0968905 -0.247518E-06  0.265E-03    1.80       5.0  T
   7    -81.0968905 -0.197459E-07  0.181E-03    1.80       7.3  T
   8    -81.0968905 -0.328994E-07  0.107E-03    1.80      12.3  T
   9    -81.0968905 -0.100501E-07  0.622E-04    1.80      21.3  T
  10    -81.0968906 -0.353114E-08  0.310E-04    1.80      42.8  T
     SCC iter.                  ...        0 min,  0.036 sec
     gradient                   ...        0 min,  0.009 sec
 * total energy  :   -79.9493445 Eh     change       -0.9374888E-03 Eh
   gradient norm :     0.0070574 Eh/α   predicted    -0.6383901E-03 ( -31.90%)
   displ. norm   :     0.3902186 α      lambda       -0.1272514E-02
   maximum displ.:     0.1620380 α      in ANC's #22, #8, #14, ...

........................................................................
.............................. CYCLE   23 ..............................
........................................................................

 iter      E             dE          RMSdq      gap      omega  full diag
   1    -81.0967593 -0.810968E+02  0.876E-02    1.80       0.0  T
   2    -81.0967899 -0.305777E-04  0.543E-02    1.80       1.0  T
   3    -81.0967882  0.164904E-05  0.281E-02    1.80       1.0  T
   4    -81.0967946 -0.633895E-05  0.105E-02    1.80       1.3  T
   5    -81.0967962 -0.164551E-05  0.644E-03    1.80       2.1  T
   6    -81.0967965 -0.242653E-06  0.361E-03    1.80       3.7  T
   7    -81.0967965 -0.447055E-07  0.232E-03    1.80       5.7  T
   8    -81.0967966 -0.600770E-07  0.111E-03    1.80      11.9  T
   9    -81.0967966 -0.923427E-08  0.691E-04    1.80      19.2  T
  10    -81.0967966 -0.357318E-08  0.411E-04    1.80      32.2  T
     SCC iter.                  ...        0 min,  0.058 sec
     gradient                   ...        0 min,  0.010 sec
 * total energy  :   -79.9502292 Eh     change       -0.8847545E-03 Eh
   gradient norm :     0.0080181 Eh/α   predicted    -0.7332368E-03 ( -17.13%)
   displ. norm   :     0.3961699 α      lambda       -0.7972785E-03
   maximum displ.:     0.1680276 α      in ANC's #8, #22, #5, ...

........................................................................
.............................. CYCLE   24 ..............................
........................................................................

 iter      E             dE          RMSdq      gap      omega  full diag
   1    -81.0954300 -0.810954E+02  0.852E-02    1.80       0.0  T
   2    -81.0954636 -0.336485E-04  0.529E-02    1.80       1.0  T
   3    -81.0954617  0.195339E-05  0.286E-02    1.80       1.0  T
   4    -81.0954692 -0.751683E-05  0.112E-02    1.80       1.2  T
   5    -81.0954715 -0.225814E-05  0.640E-03    1.80       2.1  T
   6    -81.0954716 -0.178196E-06  0.333E-03    1.80       4.0  T
   7    -81.0954717 -0.139182E-07  0.210E-03    1.80       6.3  T
   8    -81.0954717 -0.687498E-07  0.903E-04    1.80      14.7  T
   9    -81.0954717 -0.380032E-08  0.539E-04    1.80      24.6  T
     SCC iter.                  ...        0 min,  0.033 sec
     gradient                   ...        0 min,  0.008 sec
 * total energy  :   -79.9508137 Eh     change       -0.5844944E-03 Eh
   gradient norm :     0.0118985 Eh/α   predicted    -0.4612163E-03 ( -21.09%)
   displ. norm   :     0.4363490 α      lambda       -0.8196300E-03
   maximum displ.:     0.1963451 α      in ANC's #8, #5, #22, ...

........................................................................
.............................. CYCLE   25 ..............................
........................................................................

 iter      E             dE          RMSdq      gap      omega  full diag
   1    -81.0950669 -0.810951E+02  0.974E-02    1.79       0.0  T
   2    -81.0951093 -0.424407E-04  0.610E-02    1.79       1.0  T
   3    -81.0951046  0.471313E-05  0.322E-02    1.80       1.0  T
   4    -81.0951190 -0.143609E-04  0.119E-02    1.80       1.1  T
   5    -81.0951221 -0.314238E-05  0.609E-03    1.80       2.2  T
   6    -81.0951224 -0.246730E-06  0.312E-03    1.80       4.2  T
   7    -81.0951224 -0.129492E-07  0.192E-03    1.80       6.9  T
   8    -81.0951225 -0.669868E-07  0.740E-04    1.80      17.9  T
   9    -81.0951225 -0.504983E-08  0.426E-04    1.80      31.1  T
     SCC iter.                  ...        0 min,  0.029 sec
     gradient                   ...        0 min,  0.009 sec
 * total energy  :   -79.9514378 Eh     change       -0.6241330E-03 Eh
   gradient norm :     0.0107171 Eh/α   predicted    -0.4878888E-03 ( -21.83%)
   displ. norm   :     0.4330716 α      lambda       -0.8344083E-03
   maximum displ.:     0.2057022 α      in ANC's #8, #5, #9, ...

........................................................................
.............................. CYCLE   26 ..............................
........................................................................

 iter      E             dE          RMSdq      gap      omega  full diag
   1    -81.0983110 -0.810983E+02  0.919E-02    1.79       0.0  T
   2    -81.0983510 -0.399734E-04  0.575E-02    1.79       1.0  T
   3    -81.0983473  0.364521E-05  0.313E-02    1.79       1.0  T
   4    -81.0983637 -0.163771E-04  0.125E-02    1.79       1.1  T
   5    -81.0983664 -0.268934E-05  0.737E-03    1.79       1.8  T
   6    -81.0983668 -0.383347E-06  0.441E-03    1.79       3.0  T
   7    -81.0983668 -0.378223E-08  0.271E-03    1.79       4.9  T
   8    -81.0983669 -0.958910E-07  0.144E-03    1.79       9.2  T
   9    -81.0983669 -0.892031E-08  0.877E-04    1.79      15.1  T
  10    -81.0983669 -0.575734E-08  0.464E-04    1.79      28.5  T
     SCC iter.                  ...        0 min,  0.035 sec
     gradient                   ...        0 min,  0.009 sec
 * total energy  :   -79.9520248 Eh     change       -0.5870095E-03 Eh
   gradient norm :     0.0065682 Eh/α   predicted    -0.4954522E-03 ( -15.60%)
   displ. norm   :     0.4513026 α      lambda       -0.5478816E-03
   maximum displ.:     0.2291180 α      in ANC's #5, #8, #9, ...

........................................................................
.............................. CYCLE   27 ..............................
........................................................................

 iter      E             dE          RMSdq      gap      omega  full diag
   1    -81.0988210 -0.810988E+02  0.859E-02    1.78       0.0  T
   2    -81.0988537 -0.326521E-04  0.515E-02    1.79       1.0  T
   3    -81.0988477  0.597132E-05  0.292E-02    1.79       1.0  T
   4    -81.0988624 -0.147048E-04  0.102E-02    1.79       1.3  T
   5    -81.0988640 -0.160799E-05  0.560E-03    1.79       2.4  T
   6    -81.0988643 -0.297406E-06  0.276E-03    1.79       4.8  T
   7    -81.0988643 -0.137682E-07  0.157E-03    1.79       8.4  T
   8    -81.0988643 -0.344070E-07  0.764E-04    1.79      17.3  T
   9    -81.0988644 -0.487688E-08  0.505E-04    1.79      26.2  T
     SCC iter.                  ...        0 min,  0.034 sec
     gradient                   ...        0 min,  0.008 sec
 * total energy  :   -79.9524259 Eh     change       -0.4010492E-03 Eh
   gradient norm :     0.0059602 Eh/α   predicted    -0.3297356E-03 ( -17.78%)
   displ. norm   :     0.3835677 α      lambda       -0.4328718E-03
   maximum displ.:     0.2151783 α      in ANC's #5, #8, #9, ...

........................................................................
.............................. CYCLE   28 ..............................
........................................................................

 iter      E             dE          RMSdq      gap      omega  full diag
   1    -81.1024919 -0.811025E+02  0.606E-02    1.78       0.0  T
   2    -81.1025025 -0.105525E-04  0.351E-02    1.78       1.0  T
   3    -81.1024972  0.527065E-05  0.188E-02    1.78       1.0  T
   4    -81.1025060 -0.876319E-05  0.735E-03    1.78       1.8  T
   5    -81.1025064 -0.363573E-06  0.470E-03    1.78       2.8  T
   6    -81.1025065 -0.160763E-06  0.280E-03    1.78       4.7  T
   7    -81.1025065 -0.380555E-08  0.151E-03    1.78       8.8  T
   8    -81.1025065 -0.251967E-07  0.740E-04    1.78      17.9  T
   9    -81.1025065 -0.224576E-08  0.378E-04    1.78      35.0  T
     SCC iter.                  ...        0 min,  0.030 sec
     gradient                   ...        0 min,  0.009 sec
 * total energy  :   -79.9527279 Eh     change       -0.3020234E-03 Eh
   gradient norm :     0.0052848 Eh/α   predicted    -0.2482987E-03 ( -17.79%)
   displ. norm   :     0.4293957 α      lambda       -0.3124376E-03
   maximum displ.:     0.2531738 α      in ANC's #5, #8, #9, ...

........................................................................
.............................. CYCLE   29 ..............................
........................................................................

 iter      E             dE          RMSdq      gap      omega  full diag
   1    -81.1001894 -0.811002E+02  0.654E-02    1.77       0.0  T
   2    -81.1001981 -0.876539E-05  0.378E-02    1.77       1.0  T
   3    -81.1001930  0.518303E-05  0.167E-02    1.77       1.0  T
   4    -81.1002002 -0.719888E-05  0.577E-03    1.77       2.3  T
   5    -81.1002005 -0.378544E-06  0.336E-03    1.77       3.9  T
   6    -81.1002006 -0.914122E-07  0.190E-03    1.77       7.0  T
   7    -81.1002006 -0.946928E-08  0.119E-03    1.77      11.1  T
   8    -81.1002007 -0.135381E-07  0.707E-04    1.77      18.7  T
   9    -81.1002007 -0.863054E-09  0.503E-04    1.77      26.3  T
     SCC iter.                  ...        0 min,  0.033 sec
     gradient                   ...        0 min,  0.008 sec
 * total energy  :   -79.9529449 Eh     change       -0.2169426E-03 Eh
   gradient norm :     0.0048712 Eh/α   predicted    -0.1850239E-03 ( -14.71%)
   displ. norm   :     0.2878693 α      lambda       -0.2744577E-03
   maximum displ.:     0.1901853 α      in ANC's #5, #2, #9, ...

........................................................................
.............................. CYCLE   30 ..............................
........................................................................

 iter      E             dE          RMSdq      gap      omega  full diag
   1    -81.1026806 -0.811027E+02  0.446E-02    1.77       0.0  T
   2    -81.1026842 -0.355594E-05  0.267E-02    1.77       1.0  T
   3    -81.1026836  0.551372E-06  0.956E-03    1.77       1.4  T
   4    -81.1026847 -0.106517E-05  0.465E-03    1.77       2.8  T
   5    -81.1026848 -0.844599E-07  0.315E-03    1.77       4.2  T
   6    -81.1026849 -0.122116E-06  0.160E-03    1.77       8.3  T
   7    -81.1026849 -0.617491E-08  0.101E-03    1.77      13.1  T
   8    -81.1026849 -0.762488E-08  0.714E-04    1.77      18.5  T
   9    -81.1026849 -0.347987E-08  0.449E-04    1.77      29.5  T
     SCC iter.                  ...        0 min,  0.029 sec
     gradient                   ...        0 min,  0.008 sec
 * total energy  :   -79.9531559 Eh     change       -0.2110143E-03 Eh
   gradient norm :     0.0047692 Eh/α   predicted    -0.1486001E-03 ( -29.58%)
   displ. norm   :     0.3620917 α      lambda       -0.2975489E-03
   maximum displ.:     0.2447768 α      in ANC's #5, #2, #9, ...

........................................................................
.............................. CYCLE   31 ..............................
........................................................................

 iter      E             dE          RMSdq      gap      omega  full diag
   1    -81.1033753 -0.811034E+02  0.571E-02    1.77       0.0  T
   2    -81.1033827 -0.743658E-05  0.349E-02    1.76       1.0  T
   3    -81.1033803  0.239644E-05  0.157E-02    1.76       1.0  T
   4    -81.1033839 -0.358942E-05  0.672E-03    1.76       2.0  T
   5    -81.1033842 -0.328737E-06  0.457E-03    1.76       2.9  T
   6    -81.1033844 -0.178652E-06  0.213E-03    1.76       6.2  T
   7    -81.1033844 -0.141246E-07  0.133E-03    1.76       9.9  T
   8    -81.1033844 -0.145256E-07  0.869E-04    1.76      15.2  T
   9    -81.1033844 -0.471522E-08  0.550E-04    1.76      24.1  T
     SCC iter.                  ...        0 min,  0.030 sec
     gradient                   ...        0 min,  0.008 sec
 * total energy  :   -79.9534115 Eh     change       -0.2556290E-03 Eh
   gradient norm :     0.0055916 Eh/α   predicted    -0.1682808E-03 ( -34.17%)
   displ. norm   :     0.4454140 α      lambda       -0.3869431E-03
   maximum displ.:     0.3035400 α      in ANC's #5, #2, #9, ...

........................................................................
.............................. CYCLE   32 ..............................
........................................................................

 iter      E             dE          RMSdq      gap      omega  full diag
   1    -81.1038917 -0.811039E+02  0.765E-02    1.77       0.0  T
   2    -81.1039144 -0.226152E-04  0.473E-02    1.76       1.0  T
   3    -81.1039106  0.372602E-05  0.253E-02    1.76       1.0  T
   4    -81.1039186 -0.797828E-05  0.953E-03    1.76       1.4  T
   5    -81.1039198 -0.121334E-05  0.605E-03    1.76       2.2  T
   6    -81.1039201 -0.266608E-06  0.307E-03    1.76       4.3  T
   7    -81.1039201 -0.332766E-07  0.184E-03    1.76       7.2  T
   8    -81.1039201 -0.220640E-07  0.109E-03    1.76      12.1  T
   9    -81.1039202 -0.122733E-07  0.666E-04    1.76      19.9  T
  10    -81.1039202 -0.274018E-08  0.366E-04    1.76      36.2  T
     SCC iter.                  ...        0 min,  0.035 sec
     gradient                   ...        0 min,  0.009 sec
 * total energy  :   -79.9537382 Eh     change       -0.3266943E-03 Eh
   gradient norm :     0.0057611 Eh/α   predicted    -0.2318554E-03 ( -29.03%)
   displ. norm   :     0.5281324 α      lambda       -0.4005325E-03
   maximum displ.:     0.3584223 α      in ANC's #5, #2, #9, ...

........................................................................
.............................. CYCLE   33 ..............................
........................................................................

 iter      E             dE          RMSdq      gap      omega  full diag
   1    -81.1034376 -0.811034E+02  0.875E-02    1.76       0.0  T
   2    -81.1034749 -0.373119E-04  0.545E-02    1.75       1.0  T
   3    -81.1034727  0.220535E-05  0.296E-02    1.75       1.0  T
   4    -81.1034822 -0.953979E-05  0.109E-02    1.75       1.2  T
   5    -81.1034841 -0.191498E-05  0.644E-03    1.75       2.1  T
   6    -81.1034844 -0.294851E-06  0.331E-03    1.75       4.0  T
   7    -81.1034845 -0.551607E-07  0.195E-03    1.75       6.8  T
   8    -81.1034845 -0.228514E-07  0.108E-03    1.75      12.3  T
   9    -81.1034845 -0.163929E-07  0.598E-04    1.75      22.1  T
  10    -81.1034845 -0.255120E-08  0.335E-04    1.75      39.5  T
     SCC iter.                  ...        0 min,  0.032 sec
     gradient                   ...        0 min,  0.008 sec
 * total energy  :   -79.9540597 Eh     change       -0.3215172E-03 Eh
   gradient norm :     0.0050293 Eh/α   predicted    -0.2561231E-03 ( -20.34%)
   displ. norm   :     0.5182610 α      lambda       -0.3252343E-03
   maximum displ.:     0.3541715 α      in ANC's #5, #2, #9, ...

........................................................................
.............................. CYCLE   34 ..............................
........................................................................

 iter      E             dE          RMSdq      gap      omega  full diag
   1    -81.1032365 -0.811032E+02  0.827E-02    1.75       0.0  T
   2    -81.1032723 -0.358048E-04  0.529E-02    1.74       1.0  T
   3    -81.1032718  0.541665E-06  0.278E-02    1.74       1.0  T
   4    -81.1032804 -0.864480E-05  0.982E-03    1.74       1.3  T
   5    -81.1032825 -0.207970E-05  0.539E-03    1.74       2.5  T
   6    -81.1032827 -0.195713E-06  0.298E-03    1.74       4.5  T
   7    -81.1032827 -0.625471E-07  0.187E-03    1.74       7.1  T
   8    -81.1032828 -0.223680E-07  0.105E-03    1.74      12.6  T
   9    -81.1032828 -0.158754E-07  0.569E-04    1.74      23.3  T
  10    -81.1032828 -0.249287E-08  0.316E-04    1.74      41.9  T
     SCC iter.                  ...        0 min,  0.033 sec
     gradient                   ...        0 min,  0.009 sec
 * total energy  :   -79.9543072 Eh     change       -0.2474603E-03 Eh
   gradient norm :     0.0044402 Eh/α   predicted    -0.2062931E-03 ( -16.64%)
   displ. norm   :     0.4771508 α      lambda       -0.2476493E-03
   maximum displ.:     0.3237106 α      in ANC's #5, #2, #6, ...

........................................................................
.............................. CYCLE   35 ..............................
........................................................................

 iter      E             dE          RMSdq      gap      omega  full diag
   1    -81.1029424 -0.811029E+02  0.691E-02    1.74       0.0  T
   2    -81.1029632 -0.207904E-04  0.440E-02    1.73       1.0  T
   3    -81.1029615  0.174706E-05  0.219E-02    1.73       1.0  T
   4    -81.1029683 -0.676837E-05  0.795E-03    1.73       1.7  T
   5    -81.1029694 -0.114440E-05  0.448E-03    1.73       3.0  T
   6    -81.1029695 -0.110766E-06  0.255E-03    1.73       5.2  T
   7    -81.1029696 -0.500270E-07  0.161E-03    1.73       8.2  T
   8    -81.1029696 -0.138270E-07  0.906E-04    1.73      14.6  T
   9    -81.1029696 -0.880685E-08  0.567E-04    1.73      23.4  T
     SCC iter.                  ...        0 min,  0.029 sec
     gradient                   ...        0 min,  0.009 sec
 * total energy  :   -79.9544944 Eh     change       -0.1872275E-03 Eh
   gradient norm :     0.0043458 Eh/α   predicted    -0.1520265E-03 ( -18.80%)
   displ. norm   :     0.4252909 α      lambda       -0.2641680E-03
   maximum displ.:     0.2813784 α      in ANC's #5, #2, #1, ...

........................................................................
.............................. CYCLE   36 ..............................
........................................................................

 iter      E             dE          RMSdq      gap      omega  full diag
   1    -81.1042642 -0.811043E+02  0.664E-02    1.73       0.0  T
   2    -81.1042757 -0.115483E-04  0.422E-02    1.73       1.0  T
   3    -81.1042716  0.416550E-05  0.190E-02    1.73       1.0  T
   4    -81.1042793 -0.769237E-05  0.693E-03    1.73       1.9  T
   5    -81.1042800 -0.717041E-06  0.409E-03    1.73       3.2  T
   6    -81.1042800 -0.747043E-07  0.239E-03    1.73       5.5  T
   7    -81.1042801 -0.509732E-07  0.151E-03    1.73       8.8  T
   8    -81.1042801 -0.106146E-07  0.880E-04    1.73      15.1  T
   9    -81.1042801 -0.389937E-08  0.621E-04    1.73      21.3  T
     SCC iter.                  ...        0 min,  0.028 sec
     gradient                   ...        0 min,  0.008 sec
 * total energy  :   -79.9546818 Eh     change       -0.1874331E-03 Eh
   gradient norm :     0.0051054 Eh/α   predicted    -0.1559785E-03 ( -16.78%)
   displ. norm   :     0.4824066 α      lambda       -0.2844031E-03
   maximum displ.:     0.3062653 α      in ANC's #5, #2, #1, ...

........................................................................
.............................. CYCLE   37 ..............................
........................................................................

 iter      E             dE          RMSdq      gap      omega  full diag
   1    -81.1025749 -0.811026E+02  0.714E-02    1.72       0.0  T
   2    -81.1025803 -0.545019E-05  0.426E-02    1.72       1.0  T
   3    -81.1025787  0.163065E-05  0.135E-02    1.72       1.0  T
   4    -81.1025816 -0.289133E-05  0.602E-03    1.72       2.2  T
   5    -81.1025818 -0.201027E-06  0.338E-03    1.72       3.9  T
   6    -81.1025819 -0.520994E-07  0.194E-03    1.72       6.8  T
   7    -81.1025819 -0.190170E-07  0.127E-03    1.72      10.4  T
   8    -81.1025819 -0.261637E-07  0.627E-04    1.72      21.1  T
   9    -81.1025819 -0.914582E-09  0.436E-04    1.72      30.4  T
     SCC iter.                  ...        0 min,  0.031 sec
     gradient                   ...        0 min,  0.010 sec
 * total energy  :   -79.9548798 Eh     change       -0.1979393E-03 Eh
   gradient norm :     0.0060997 Eh/α   predicted    -0.1752934E-03 ( -11.44%)
   displ. norm   :     0.4056240 α      lambda       -0.3982745E-03
   maximum displ.:     0.1927770 α      in ANC's #1, #5, #20, ...

........................................................................
.............................. CYCLE   38 ..............................
........................................................................

 iter      E             dE          RMSdq      gap      omega  full diag
   1    -81.1068498 -0.811068E+02  0.695E-02    1.72       0.0  T
   2    -81.1068671 -0.173278E-04  0.405E-02    1.72       1.0  T
   3    -81.1068639  0.320206E-05  0.226E-02    1.72       1.0  T
   4    -81.1068696 -0.571136E-05  0.893E-03    1.72       1.5  T
   5    -81.1068712 -0.154574E-05  0.491E-03    1.72       2.7  T
   6    -81.1068713 -0.116857E-06  0.262E-03    1.72       5.1  T
   7    -81.1068714 -0.577551E-07  0.143E-03    1.72       9.2  T
   8    -81.1068714 -0.171017E-07  0.755E-04    1.72      17.6  T
   9    -81.1068714 -0.687636E-08  0.442E-04    1.72      30.0  T
     SCC iter.                  ...        0 min,  0.030 sec
     gradient                   ...        0 min,  0.008 sec
 * total energy  :   -79.9550913 Eh     change       -0.2114732E-03 Eh
   gradient norm :     0.0074592 Eh/α   predicted    -0.2319016E-03 (   9.66%)
   displ. norm   :     0.3785590 α      lambda       -0.2822002E-03
   maximum displ.:     0.2102030 α      in ANC's #5, #2, #1, ...

........................................................................
.............................. CYCLE   39 ..............................
........................................................................

 iter      E             dE          RMSdq      gap      omega  full diag
   1    -81.1038896 -0.811039E+02  0.680E-02    1.72       0.0  T
   2    -81.1038986 -0.900918E-05  0.404E-02    1.72       1.0  T
   3    -81.1038936  0.498888E-05  0.179E-02    1.72       1.0  T
   4    -81.1039001 -0.651685E-05  0.754E-03    1.72       1.8  T
   5    -81.1039010 -0.893079E-06  0.408E-03    1.72       3.2  T
   6    -81.1039011 -0.102664E-06  0.222E-03    1.72       6.0  T
   7    -81.1039011  0.148266E-08  0.138E-03    1.72       9.6  T
   8    -81.1039012 -0.306750E-07  0.607E-04    1.72      21.8  T
   9    -81.1039012 -0.453518E-08  0.339E-04    1.72      39.1  T
     SCC iter.                  ...        0 min,  0.029 sec
     gradient                   ...        0 min,  0.008 sec
 * total energy  :   -79.9552844 Eh     change       -0.1931559E-03 Eh
   gradient norm :     0.0065945 Eh/α   predicted    -0.1613249E-03 ( -16.48%)
   displ. norm   :     0.3371445 α      lambda       -0.2613848E-03
   maximum displ.:     0.1858422 α      in ANC's #5, #2, #1, ...

........................................................................
.............................. CYCLE   40 ..............................
........................................................................

 iter      E             dE          RMSdq      gap      omega  full diag
   1    -81.1032896 -0.811033E+02  0.574E-02    1.72       0.0  T
   2    -81.1032964 -0.676569E-05  0.355E-02    1.72       1.0  T
   3    -81.1032922  0.418772E-05  0.163E-02    1.72       1.0  T
   4    -81.1032976 -0.540746E-05  0.798E-03    1.72       1.7  T
   5    -81.1032984 -0.777608E-06  0.410E-03    1.72       3.2  T
   6    -81.1032985 -0.104387E-06  0.221E-03    1.72       6.0  T
   7    -81.1032985 -0.732834E-08  0.128E-03    1.72      10.4  T
   8    -81.1032985 -0.293977E-07  0.566E-04    1.72      23.4  T
   9    -81.1032985 -0.189605E-08  0.364E-04    1.72      36.4  T
     SCC iter.                  ...        0 min,  0.031 sec
     gradient                   ...        0 min,  0.009 sec
 * total energy  :   -79.9554759 Eh     change       -0.1915346E-03 Eh
   gradient norm :     0.0054299 Eh/α   predicted    -0.1455528E-03 ( -24.01%)
   displ. norm   :     0.4150324 α      lambda       -0.2524875E-03
   maximum displ.:     0.2364578 α      in ANC's #5, #1, #2, ...

........................................................................
.............................. CYCLE   41 ..............................
........................................................................

 iter      E             dE          RMSdq      gap      omega  full diag
   1    -81.1031556 -0.811032E+02  0.683E-02    1.72       0.0  T
   2    -81.1031599 -0.427365E-05  0.414E-02    1.72       1.0  T
   3    -81.1031573  0.262377E-05  0.140E-02    1.72       1.0  T
   4    -81.1031602 -0.293344E-05  0.773E-03    1.72       1.7  T
   5    -81.1031609 -0.678264E-06  0.397E-03    1.72       3.3  T
   6    -81.1031611 -0.207537E-06  0.210E-03    1.72       6.3  T
   7    -81.1031611 -0.137521E-07  0.108E-03    1.72      12.3  T
   8    -81.1031611 -0.161831E-07  0.518E-04    1.72      25.6  T
   9    -81.1031611 -0.142377E-08  0.339E-04    1.72      39.0  T
     SCC iter.                  ...        0 min,  0.031 sec
     gradient                   ...        0 min,  0.009 sec
 * total energy  :   -79.9556573 Eh     change       -0.1813392E-03 Eh
   gradient norm :     0.0057926 Eh/α   predicted    -0.1479902E-03 ( -18.39%)
   displ. norm   :     0.3706234 α      lambda       -0.2382938E-03
   maximum displ.:     0.1998495 α      in ANC's #5, #1, #2, ...

........................................................................
.............................. CYCLE   42 ..............................
........................................................................

 iter      E             dE          RMSdq      gap      omega  full diag
   1    -81.1058355 -0.811058E+02  0.684E-02    1.72       0.0  T
   2    -81.1058380 -0.256571E-05  0.422E-02    1.72       1.0  T
   3    -81.1058349  0.313653E-05  0.151E-02    1.72       1.0  T
   4    -81.1058385 -0.365610E-05  0.726E-03    1.72       1.8  T
   5    -81.1058387 -0.114237E-06  0.437E-03    1.72       3.0  T
   6    -81.1058390 -0.365560E-06  0.181E-03    1.72       7.3  T
   7    -81.1058390 -0.400615E-08  0.897E-04    1.72      14.8  T
   8    -81.1058390 -0.121640E-07  0.414E-04    1.72      32.0  T
     SCC iter.                  ...        0 min,  0.027 sec
     gradient                   ...        0 min,  0.007 sec
 * total energy  :   -79.9558148 Eh     change       -0.1575137E-03 Eh
   gradient norm :     0.0052149 Eh/α   predicted    -0.1355134E-03 ( -13.97%)
   displ. norm   :     0.5545278 α      lambda       -0.2350751E-03
   maximum displ.:     0.3550027 α      in ANC's #5, #2, #1, ...
 * RMSD in coord.:     1.0127351 α      energy gain  -0.8883180E-02 Eh

generating ANC from model Hessian ...
Using Lindh-Hessian (1995)
 Shifting diagonal of input Hessian by   9.810700035234614E-003
 Lowest  eigenvalues of input Hessian
    0.000000    0.000000    0.000000    0.000000    0.000000    0.000000
    0.010000    0.010071    0.010306    0.010481    0.010710    0.010774
    0.011179    0.011221    0.011596    0.011633    0.012148    0.012577
 Highest eigenvalues
    1.958221    1.982723    1.988664    1.996541    2.009297    2.605397
 

........................................................................
.............................. CYCLE   43 ..............................
........................................................................

 iter      E             dE          RMSdq      gap      omega  full diag
   1    -81.1041743 -0.811042E+02  0.914E-02    1.72       0.0  T
   2    -81.1041809 -0.658837E-05  0.583E-02    1.72       1.0  T
   3    -81.1041714  0.956007E-05  0.216E-02    1.72       1.0  T
   4    -81.1041828 -0.114823E-04  0.888E-03    1.72       1.5  T
   5    -81.1041829 -0.682379E-07  0.584E-03    1.72       2.3  T
   6    -81.1041835 -0.561087E-06  0.256E-03    1.72       5.2  T
   7    -81.1041835 -0.170019E-07  0.150E-03    1.72       8.9  T
   8    -81.1041835 -0.370410E-07  0.733E-04    1.72      18.1  T
   9    -81.1041835 -0.368148E-08  0.448E-04    1.72      29.6  T
     SCC iter.                  ...        0 min,  0.029 sec
     gradient                   ...        0 min,  0.008 sec
 * total energy  :   -79.9559836 Eh     change       -0.1687816E-03 Eh
   gradient norm :     0.0056401 Eh/α   predicted     0.0000000E+00 (-100.00%)
   displ. norm   :     0.0704359 α      lambda       -0.1352939E-03
   maximum displ.:     0.0313549 α      in ANC's #12, #1, #15, ...

........................................................................
.............................. CYCLE   44 ..............................
........................................................................

 iter      E             dE          RMSdq      gap      omega  full diag
   1    -81.1062385 -0.811062E+02  0.237E-02    1.72       0.0  T
   2    -81.1062393 -0.770141E-06  0.143E-02    1.72       1.0  T
   3    -81.1062381  0.122524E-05  0.602E-03    1.72       2.2  T
   4    -81.1062395 -0.145975E-05  0.217E-03    1.72       6.1  T
   5    -81.1062396 -0.867850E-07  0.103E-03    1.72      12.8  T
   6    -81.1062396 -0.518673E-08  0.616E-04    1.72      21.5  T
   7    -81.1062396 -0.471911E-08  0.369E-04    1.72      35.8  T
     SCC iter.                  ...        0 min,  0.022 sec
     gradient                   ...        0 min,  0.008 sec
 * total energy  :   -79.9560877 Eh     change       -0.1041499E-03 Eh
   gradient norm :     0.0025416 Eh/α   predicted    -0.6828880E-04 ( -34.43%)
   displ. norm   :     0.1646879 α      lambda       -0.1668950E-03
   maximum displ.:     0.0784919 α      in ANC's #12, #1, #4, ...

........................................................................
.............................. CYCLE   45 ..............................
........................................................................

 iter      E             dE          RMSdq      gap      omega  full diag
   1    -81.1081353 -0.811081E+02  0.490E-02    1.72       0.0  T
   2    -81.1081387 -0.343663E-05  0.301E-02    1.72       1.0  T
   3    -81.1081331  0.562003E-05  0.131E-02    1.72       1.0  T
   4    -81.1081401 -0.703918E-05  0.436E-03    1.72       3.0  T
   5    -81.1081404 -0.281767E-06  0.247E-03    1.72       5.4  T
   6    -81.1081404 -0.409777E-07  0.155E-03    1.72       8.5  T
   7    -81.1081404 -0.137533E-07  0.996E-04    1.72      13.3  T
   8    -81.1081405 -0.103223E-07  0.530E-04    1.72      25.0  T
     SCC iter.                  ...        0 min,  0.026 sec
     gradient                   ...        0 min,  0.007 sec
 * total energy  :   -79.9561940 Eh     change       -0.1062928E-03 Eh
   gradient norm :     0.0029340 Eh/α   predicted    -0.8571417E-04 ( -19.36%)
   displ. norm   :     0.1624060 α      lambda       -0.9506625E-04
   maximum displ.:     0.0770181 α      in ANC's #12, #4, #1, ...

........................................................................
.............................. CYCLE   46 ..............................
........................................................................

 iter      E             dE          RMSdq      gap      omega  full diag
   1    -81.1079691 -0.811080E+02  0.499E-02    1.72       0.0  T
   2    -81.1079725 -0.340161E-05  0.307E-02    1.72       1.0  T
   3    -81.1079671  0.543521E-05  0.130E-02    1.72       1.0  T
   4    -81.1079741 -0.696485E-05  0.372E-03    1.72       3.6  T
   5    -81.1079743 -0.213027E-06  0.214E-03    1.72       6.2  T
   6    -81.1079743 -0.298366E-07  0.140E-03    1.72       9.5  T
   7    -81.1079743 -0.206222E-08  0.961E-04    1.72      13.8  T
   8    -81.1079743 -0.130049E-07  0.531E-04    1.72      24.9  T
     SCC iter.                  ...        0 min,  0.026 sec
     gradient                   ...        0 min,  0.008 sec
 * total energy  :   -79.9562623 Eh     change       -0.6824852E-04 Eh
   gradient norm :     0.0038725 Eh/α   predicted    -0.4879647E-04 ( -28.50%)
   displ. norm   :     0.2304615 α      lambda       -0.1130148E-03
   maximum displ.:     0.1040880 α      in ANC's #12, #4, #1, ...

........................................................................
.............................. CYCLE   47 ..............................
........................................................................

 iter      E             dE          RMSdq      gap      omega  full diag
   1    -81.1069078 -0.811069E+02  0.680E-02    1.73       0.0  T
   2    -81.1069156 -0.772983E-05  0.420E-02    1.72       1.0  T
   3    -81.1069058  0.976911E-05  0.188E-02    1.72       1.0  T
   4    -81.1069191 -0.132755E-04  0.488E-03    1.72       2.7  T
   5    -81.1069195 -0.467549E-06  0.263E-03    1.72       5.0  T
   6    -81.1069196 -0.512366E-07  0.162E-03    1.72       8.2  T
   7    -81.1069196 -0.360046E-09  0.108E-03    1.72      12.3  T
   8    -81.1069196 -0.149174E-07  0.655E-04    1.72      20.2  T
   9    -81.1069196 -0.204811E-08  0.472E-04    1.72      28.0  T
     SCC iter.                  ...        0 min,  0.029 sec
     gradient                   ...        0 min,  0.008 sec
 * total energy  :   -79.9563475 Eh     change       -0.8525559E-04 Eh
   gradient norm :     0.0036022 Eh/α   predicted    -0.5950873E-04 ( -30.20%)
   displ. norm   :     0.2536225 α      lambda       -0.1145466E-03
   maximum displ.:     0.1160653 α      in ANC's #4, #1, #12, ...

........................................................................
.............................. CYCLE   48 ..............................
........................................................................

 iter      E             dE          RMSdq      gap      omega  full diag
   1    -81.1056083 -0.811056E+02  0.726E-02    1.73       0.0  T
   2    -81.1056186 -0.103275E-04  0.449E-02    1.73       1.0  T
   3    -81.1056083  0.103471E-04  0.212E-02    1.73       1.0  T
   4    -81.1056232 -0.149513E-04  0.519E-03    1.73       2.6  T
   5    -81.1056238 -0.612417E-06  0.266E-03    1.73       5.0  T
   6    -81.1056239 -0.620140E-07  0.153E-03    1.73       8.7  T
   7    -81.1056239 -0.214091E-08  0.989E-04    1.73      13.4  T
   8    -81.1056239 -0.984092E-08  0.615E-04    1.73      21.5  T
     SCC iter.                  ...        0 min,  0.030 sec
     gradient                   ...        0 min,  0.008 sec
 * total energy  :   -79.9564339 Eh     change       -0.8639636E-04 Eh
   gradient norm :     0.0027744 Eh/α   predicted    -0.6095792E-04 ( -29.44%)
   displ. norm   :     0.2523903 α      lambda       -0.1075289E-03
   maximum displ.:     0.1215625 α      in ANC's #4, #1, #5, ...

........................................................................
.............................. CYCLE   49 ..............................
........................................................................

 iter      E             dE          RMSdq      gap      omega  full diag
   1    -81.1050684 -0.811051E+02  0.681E-02    1.74       0.0  T
   2    -81.1050781 -0.979860E-05  0.422E-02    1.73       1.0  T
   3    -81.1050694  0.876806E-05  0.204E-02    1.73       1.0  T
   4    -81.1050825 -0.131129E-04  0.509E-03    1.73       2.6  T
   5    -81.1050831 -0.559501E-06  0.272E-03    1.73       4.9  T
[...]
        76                         -0.2381573              -6.4806 (LUMO)
        77                         -0.2326148              -6.3298
        78                         -0.2256664              -6.1407
        79                         -0.2230173              -6.0686
        80                         -0.2069579              -5.6316
       ...                                ...                  ...
       153                          2.9897724              81.3558
      -------------------------------------------------------------
                  HL-Gap            0.0679604 Eh            1.8493 eV
             Fermi-level           -0.2721376 Eh           -7.4052 eV

 SCC (total)                   0 d,  0 h,  0 min,  0.034 sec
 SCC setup                      ...        0 min,  0.003 sec (  8.198%)
 Dispersion                     ...        0 min,  0.000 sec (  1.268%)
 classical contributions        ...        0 min,  0.000 sec (  0.097%)
 integral evaluation            ...        0 min,  0.003 sec (  9.458%)
 iterations                     ...        0 min,  0.014 sec ( 40.474%)
 molecular gradient             ...        0 min,  0.010 sec ( 29.740%)
 printout                       ...        0 min,  0.004 sec ( 10.625%)

         :::::::::::::::::::::::::::::::::::::::::::::::::::::
         ::                     SUMMARY                     ::
         :::::::::::::::::::::::::::::::::::::::::::::::::::::
         :: total energy             -79.959851655064 Eh    ::
         :: gradient norm              0.000173943527 Eh/a0 ::
         :: HOMO-LUMO gap              1.849297937983 eV    ::
         ::.................................................::
         :: SCC energy               -81.110440398578 Eh    ::
         :: -> isotropic ES            0.104617055953 Eh    ::
         :: -> anisotropic ES         -0.007927748667 Eh    ::
         :: -> anisotropic XC          0.025149099117 Eh    ::
         :: -> dispersion             -0.081087809153 Eh    ::
         :: repulsion energy           1.148230641242 Eh    ::
         :: add. restraining           0.000000000000 Eh    ::
         :: total charge              -0.000000000000 e     ::
         :::::::::::::::::::::::::::::::::::::::::::::::::::::

           -------------------------------------------------
          |                Property Printout                |
           -------------------------------------------------

    * Orbital Energies and Occupations

         #    Occupation            Energy/Eh            Energy/eV
      -------------------------------------------------------------
         1        2.0000           -0.7229509             -19.6725
       ...           ...                  ...                  ...
        63        2.0000           -0.4070642             -11.0768
        64        2.0000           -0.4060704             -11.0497
        65        2.0000           -0.4036541             -10.9840
        66        2.0000           -0.4007103             -10.9039
        67        2.0000           -0.3982052             -10.8357
        68        2.0000           -0.3847607             -10.4699
        69        2.0000           -0.3748740             -10.2008
        70        2.0000           -0.3489164              -9.4945
        71        2.0000           -0.3287904              -8.9468
        72        2.0000           -0.3237615              -8.8100
        73        2.0000           -0.3200543              -8.7091
        74        2.0000           -0.3192010              -8.6859
        75        2.0000           -0.3061178              -8.3299 (HOMO)
        76                         -0.2381573              -6.4806 (LUMO)
        77                         -0.2326148              -6.3298
        78                         -0.2256664              -6.1407
        79                         -0.2230173              -6.0686
        80                         -0.2069579              -5.6316
        81                         -0.1713086              -4.6615
        82                         -0.1560555              -4.2465
        83                         -0.1464932              -3.9863
        84                         -0.1267191              -3.4482
        85                         -0.1014347              -2.7602
        86                         -0.0841703              -2.2904
       ...                                ...                  ...
       153                          2.9897724              81.3558
      -------------------------------------------------------------
                  HL-Gap            0.0679604 Eh            1.8493 eV
             Fermi-level           -0.2721376 Eh           -7.4052 eV

     #   Z          covCN         q      C6AA      α(0)
     1   6 C        2.837    -0.094    30.354     9.029
     2   6 C        2.885    -0.036    28.896     8.813
     3   6 C        3.811     0.016    20.291     6.412
     4   7 N        2.731    -0.265    26.869     7.699
     5   6 C        3.896     0.059    19.543     6.284
     6   6 C        3.755    -0.118    22.818     6.811
     7   6 C        3.751    -0.092    22.311     6.736
     8  15 P        4.090     0.167   153.020    22.221
     9   6 C        2.916    -0.015    28.398     8.739
    10   6 C        2.996    -0.033    28.803     8.804
    11   6 C        2.918    -0.030    28.743     8.792
    12   6 C        2.920    -0.030    28.758     8.794
    13   6 C        2.919    -0.028    28.710     8.787
    14   6 C        2.982    -0.030    28.744     8.795
    15   6 C        2.922     0.007    27.876     8.658
    16   6 C        2.957    -0.029    28.726     8.791
    17   6 C        2.919    -0.026    28.658     8.779
    18   6 C        2.922    -0.025    28.630     8.775
    19   6 C        2.916    -0.027    28.664     8.779
    20   6 C        3.063    -0.002    28.020     8.680
    21  28 Ni       2.131    -0.822   201.315    29.276
    22  16 S        3.999     0.708   115.464    18.085
    23   8 O        0.860    -0.567    25.324     6.747
    24   6 C        3.912    -0.019    20.857     6.491
    25   6 C        3.770    -0.105    22.546     6.767
    26   6 C        3.876    -0.096    22.278     6.711
    27   6 C        3.847    -0.096    22.298     6.717
    28   1 H        0.926     0.033     2.540     2.492
    29   1 H        0.926     0.037     2.493     2.469
    30   1 H        0.925     0.048     2.339     2.392
    31   1 H        0.924     0.028     2.616     2.529
    32   1 H        0.924     0.059     2.213     2.327
    33   1 H        0.924     0.033     2.538     2.491
    34   1 H        0.925     0.048     2.340     2.392
    35   1 H        0.924     0.138     1.478     1.901
    36   1 H        0.925     0.049     2.329     2.387
    37   1 H        0.925     0.057     2.238     2.340
    38   1 H        0.925     0.056     2.242     2.342
    39   1 H        0.925     0.035     2.510     2.478
    40   1 H        0.926     0.031     2.571     2.507
    41   1 H        0.926     0.031     2.565     2.505
    42   1 H        0.926     0.032     2.552     2.498
    43   1 H        0.926     0.038     2.472     2.459
    44   1 H        0.925     0.039     2.465     2.455
    45   1 H        0.926     0.035     2.511     2.478
    46   1 H        0.926     0.036     2.496     2.471
    47   1 H        0.926     0.040     2.453     2.449
    48   1 H        0.943     0.140     1.461     1.889
    49   1 H        0.925     0.048     2.349     2.397
    50   1 H        0.925     0.034     2.537     2.491
    51   1 H        0.924     0.036     2.499     2.472
    52   1 H        0.925     0.039     2.457     2.451
    53   1 H        0.925     0.049     2.332     2.388
    54   1 H        0.927     0.116     1.645     2.005
    55   1 H        0.925     0.054     2.265     2.353
    56   1 H        0.925     0.046     2.371     2.408
    57   1 H        1.115     0.162     1.305     1.784

 Mol. C6AA /au·bohr⁶  :      41768.963891
 Mol. C8AA /au·bohr⁸  :    1210618.517786
 Mol. α(0) /au        :        330.970275


Wiberg/Mayer (AO) data.
largest (>0.10) Wiberg bond orders for each atom

 ---------------------------------------------------------------------------
     #   Z sym  total        # sym  WBO       # sym  WBO       # sym  WBO
 ---------------------------------------------------------------------------
     1   6 C    3.990 --     2 C    1.978    29 H    0.977    28 H    0.975
     2   6 C    3.989 --     1 C    1.978     3 C    1.013    30 H    0.963
     3   6 C    3.981 --     2 C    1.013     4 N    0.986    31 H    0.966
                            32 H    0.955
     4   7 N    3.218 --    22 S    1.020     3 C    0.986     5 C    0.984
     5   6 C    3.979 --     6 C    1.002     4 N    0.984     7 C    0.976
                            33 H    0.959
     6   6 C    3.992 --     5 C    1.002    34 H    0.983    36 H    0.978
                            35 H    0.865
     7   6 C    3.986 --     8 P    0.990     5 C    0.976    37 H    0.951
                            38 H    0.948
     8  15 P    4.099 --     9 C    0.993     7 C    0.990    15 C    0.978
                            21 Ni   0.761
     9   6 C    3.974 --    14 C    1.392    10 C    1.388     8 P    0.993
                            12 C    0.104
    10   6 C    3.991 --    11 C    1.453     9 C    1.388    39 H    0.958
                            13 C    0.107
    11   6 C    3.991 --    10 C    1.453    12 C    1.431    40 H    0.970
                            14 C    0.107
    12   6 C    3.978 --    13 C    1.435    11 C    1.431    41 H    0.971
                             9 C    0.104
    13   6 C    3.991 --    14 C    1.449    12 C    1.435    42 H    0.970
                            10 C    0.107
    14   6 C    3.990 --    13 C    1.449     9 C    1.392    43 H    0.961
                            11 C    0.107
    15   6 C    3.982 --    16 C    1.400    20 C    1.384     8 P    0.978
                            18 C    0.108
    16   6 C    3.991 --    17 C    1.443    15 C    1.400    44 H    0.964
                            19 C    0.108
    17   6 C    3.991 --    16 C    1.443    18 C    1.438    45 H    0.970
                            20 C    0.107
    18   6 C    3.986 --    17 C    1.438    19 C    1.431    46 H    0.971
                            15 C    0.108
    19   6 C    3.991 --    20 C    1.446    18 C    1.431    47 H    0.969
                            16 C    0.108
    20   6 C    3.990 --    19 C    1.446    15 C    1.384    48 H    0.815
                            21 Ni   0.152    17 C    0.107
    21  28 Ni   2.214 --     8 P    0.761    22 S    0.269    27 C    0.166
                            20 C    0.152    57 H    0.150    48 H    0.132
    22  16 S    4.044 --    23 O    1.753     4 N    1.020    24 C    0.857
                            21 Ni   0.269
    23   8 O    1.963 --    22 S    1.753
    24   6 C    3.982 --    25 C    1.009    27 C    1.001    26 C    0.996
                            22 S    0.857
    25   6 C    3.995 --    24 C    1.009    50 H    0.984    49 H    0.980
                            51 H    0.979
    26   6 C    3.995 --    24 C    0.996    53 H    0.982    52 H    0.980
                            54 H    0.872
    27   6 C    3.995 --    24 C    1.001    56 H    0.980    55 H    0.977
                            57 H    0.805    21 Ni   0.166
    28   1 H    0.999 --     1 C    0.975
    29   1 H    0.998 --     1 C    0.977
    30   1 H    0.998 --     2 C    0.963
    31   1 H    0.999 --     3 C    0.966
    32   1 H    0.996 --     3 C    0.955
    33   1 H    0.997 --     5 C    0.959
    34   1 H    0.997 --     6 C    0.983
    35   1 H    0.981 --     6 C    0.865
    36   1 H    0.997 --     6 C    0.978
    37   1 H    0.996 --     7 C    0.951
    38   1 H    0.997 --     7 C    0.948
    39   1 H    0.999 --    10 C    0.958
    40   1 H    0.998 --    11 C    0.970
    41   1 H    0.998 --    12 C    0.971
    42   1 H    0.998 --    13 C    0.970
    43   1 H    0.998 --    14 C    0.961
    44   1 H    0.998 --    16 C    0.964
    45   1 H    0.998 --    17 C    0.970
    46   1 H    0.998 --    18 C    0.971
    47   1 H    0.998 --    19 C    0.969
    48   1 H    0.980 --    20 C    0.815    21 Ni   0.132
    49   1 H    0.998 --    25 C    0.980
    50   1 H    0.999 --    25 C    0.984
    51   1 H    0.998 --    25 C    0.979
    52   1 H    0.998 --    26 C    0.980
    53   1 H    0.998 --    26 C    0.982
    54   1 H    0.986 --    26 C    0.872
    55   1 H    0.997 --    27 C    0.977
    56   1 H    0.997 --    27 C    0.980
    57   1 H    0.973 --    27 C    0.805    21 Ni   0.150
 ---------------------------------------------------------------------------

Topologies differ in total number of bonds
Writing topology from bond orders to xtbtopo.mol

molecular dipole:
                 x           y           z       tot (Debye)
 q only:        0.229      -0.129       0.979
   full:       -0.364       0.227       0.539       1.751
molecular quadrupole (traceless):
                xx          xy          yy          xz          yz          zz
 q only:        9.270       6.131      -7.528      -4.961       7.946      -1.742
  q+dip:       10.277      11.118     -11.086      -5.351      14.248       0.809
   full:        9.449       7.399      -7.430      -3.482      11.151      -2.019

           -------------------------------------------------
          |                Geometry Summary                 |
           -------------------------------------------------

      molecular mass/u    :      446.2124170
   center of mass at/Å    :        0.2094706      -0.2323952      -0.0469676
  moments of inertia/u·Å² :        0.2181818E+04   0.3871916E+04   0.4271771E+04
rotational constants/cm⁻¹ :        0.7726416E-02   0.4353822E-02   0.3946286E-02

 * 57 selected distances

     #   Z          #   Z                                           value/Å
     1   6 C        2   6 C                                       1.3196351
     3   6 C        4   7 N                                       1.4529485
     4   7 N        5   6 C                                       1.4619035
     5   6 C        6   6 C                                       1.5279233
     5   6 C        7   6 C                                       1.5463874
     7   6 C        8  15 P                                       1.8734392
     8  15 P        9   6 C                                       1.8290862
     9   6 C       10   6 C                                       1.3927546
    10   6 C       11   6 C                                       1.3817648
    11   6 C       12   6 C                                       1.3854379
    12   6 C       13   6 C                                       1.3850004
     9   6 C       14   6 C                                       1.3917038
    13   6 C       14   6 C                                       1.3827987
     8  15 P       15   6 C                                       1.8336045
    15   6 C       16   6 C                                       1.3879591
    16   6 C       17   6 C                                       1.3842210
    17   6 C       18   6 C                                       1.3853131
    18   6 C       19   6 C                                       1.3862029
    15   6 C       20   6 C                                       1.3934349
    19   6 C       20   6 C                                       1.3811842
     4   7 N       22  16 S                                       1.7096891
    21  28 Ni      22  16 S                                       2.1370085 (max)
    22  16 S       23   8 O                                       1.4556658
    22  16 S       24   6 C                                       1.8779702
    24   6 C       25   6 C                                       1.5128934
    24   6 C       26   6 C                                       1.5260358
    24   6 C       27   6 C                                       1.5197450
     1   6 C       28   1 H                                       1.0790708
     1   6 C       29   1 H                                       1.0769436 (min)
     2   6 C       30   1 H                                       1.0814540
     3   6 C       31   1 H                                       1.0969555
     3   6 C       32   1 H                                       1.0907629
     5   6 C       33   1 H                                       1.0976509
     6   6 C       34   1 H                                       1.0867165
     6   6 C       35   1 H                                       1.1033338
     6   6 C       36   1 H                                       1.0875066
     7   6 C       37   1 H                                       1.0917362
     7   6 C       38   1 H                                       1.0918174
    10   6 C       39   1 H                                       1.0815143
    11   6 C       40   1 H                                       1.0806975
    12   6 C       41   1 H                                       1.0799888
    13   6 C       42   1 H                                       1.0805104
    14   6 C       43   1 H                                       1.0806554
    16   6 C       44   1 H                                       1.0813002
    17   6 C       45   1 H                                       1.0805111
    18   6 C       46   1 H                                       1.0800670
    19   6 C       47   1 H                                       1.0802138
    20   6 C       48   1 H                                       1.1108730
    25   6 C       49   1 H                                       1.0891022
    25   6 C       50   1 H                                       1.0880782
    25   6 C       51   1 H                                       1.0905630
    26   6 C       52   1 H                                       1.0896068
    26   6 C       53   1 H                                       1.0884840
    26   6 C       54   1 H                                       1.1111427
    27   6 C       55   1 H                                       1.0875992
    27   6 C       56   1 H                                       1.0901136
    27   6 C       57   1 H                                       1.1257235

 * 8 distinct bonds (by element types)

   Z      Z             #   av. dist./Å        max./Å        min./Å
   1 H    6 C          30     1.0893564     1.1257235     1.0769436
   6 C    6 C          18     1.4216886     1.5463874     1.3196351
   6 C    7 N           2     1.4574260     1.4619035     1.4529485
   6 C   15 P           3     1.8453766     1.8734392     1.8290862
   6 C   16 S           1     1.8779702     1.8779702     1.8779702
   7 N   16 S           1     1.7096891     1.7096891     1.7096891
   8 O   16 S           1     1.4556658     1.4556658     1.4556658
  16 S   28 Ni          1     2.1370085     2.1370085     2.1370085


optimized geometry written to: xtbopt.xyz


           -------------------------------------------------
          | TOTAL ENERGY              -79.959851655064 Eh   |
          | GRADIENT NORM               0.000173943527 Eh/α |
          | HOMO-LUMO GAP               1.849297937983 eV   |
           -------------------------------------------------

------------------------------------------------------------------------
 * finished run on 2024/03/27 at 14:22:33.120     
------------------------------------------------------------------------
 total:
 * wall-time:     0 d,  0 h,  0 min,  9.584 sec
 *  cpu-time:     0 d,  0 h,  1 min, 51.720 sec
 * ratio c/w:    11.657 speedup
 SCF:
 * wall-time:     0 d,  0 h,  0 min,  0.121 sec
 *  cpu-time:     0 d,  0 h,  0 min,  1.407 sec
 * ratio c/w:    11.643 speedup
 ANC optimizer:
 * wall-time:     0 d,  0 h,  0 min,  9.226 sec
 *  cpu-time:     0 d,  0 h,  1 min, 47.925 sec
 * ratio c/w:    11.698 speedup

